/*--------------------------------*- C++ -*----------------------------------*\
| =========                 |                                                 |
| \\      /  F ield         | OpenFOAM: The Open Source CFD Toolbox           |
|  \\    /   O peration     | Version:  2.4.0                                 |
|   \\  /    A nd           | Web:      www.OpenFOAM.org                      |
|    \\/     M anipulation  |                                                 |
\*---------------------------------------------------------------------------*/
FoamFile
{
    version     2.0;
    format      ascii;
    class       volScalarField;
    location    "0.07";
    object      p;
}
// * * * * * * * * * * * * * * * * * * * * * * * * * * * * * * * * * * * * * //

dimensions      [1 -1 -2 0 0 0 0];

internalField   nonuniform List<scalar> 
1000
(
5e+06
5e+06
5e+06
5e+06
5e+06
5e+06
5e+06
5e+06
5e+06
5e+06
5e+06
5e+06
5e+06
5e+06
5e+06
5e+06
5e+06
5e+06
5e+06
5e+06
5e+06
5e+06
5e+06
5e+06
5e+06
5e+06
5e+06
5e+06
5e+06
5e+06
5e+06
5e+06
5e+06
5e+06
5e+06
5e+06
5e+06
5e+06
5e+06
5e+06
5e+06
5e+06
5e+06
5e+06
5e+06
5e+06
5e+06
5e+06
5e+06
5e+06
5e+06
5e+06
5e+06
5e+06
5e+06
5e+06
5e+06
5e+06
5e+06
5e+06
5e+06
5e+06
5e+06
5e+06
5e+06
5e+06
5e+06
5e+06
5e+06
5e+06
5e+06
5e+06
5e+06
5e+06
5e+06
5e+06
5e+06
5e+06
5e+06
5e+06
5e+06
5e+06
5e+06
5e+06
5e+06
5e+06
5e+06
5e+06
5e+06
5e+06
5e+06
5e+06
5e+06
5e+06
5e+06
5e+06
5e+06
5e+06
5e+06
5e+06
5e+06
5e+06
5e+06
5e+06
5e+06
5e+06
5e+06
5e+06
5e+06
5e+06
5e+06
5e+06
5e+06
5e+06
5e+06
5e+06
5e+06
5e+06
5e+06
5e+06
5e+06
5e+06
5e+06
5e+06
5e+06
5e+06
5e+06
5e+06
5e+06
5e+06
5e+06
5e+06
5e+06
5e+06
5e+06
5e+06
5e+06
5e+06
5e+06
5e+06
5e+06
5e+06
5e+06
5e+06
5e+06
5e+06
5e+06
5e+06
5e+06
5e+06
5e+06
5e+06
5e+06
5e+06
5e+06
5e+06
5e+06
5e+06
5e+06
5e+06
5e+06
5e+06
5e+06
5e+06
5e+06
5e+06
5e+06
5e+06
5e+06
5e+06
5e+06
5e+06
5e+06
5e+06
5e+06
5e+06
5e+06
5e+06
5e+06
5e+06
5e+06
5e+06
5e+06
5e+06
5e+06
5e+06
5e+06
5e+06
5e+06
5e+06
5e+06
5e+06
5e+06
5e+06
5e+06
5e+06
5e+06
5e+06
5e+06
5e+06
5e+06
5e+06
5e+06
5e+06
5e+06
5e+06
5e+06
5e+06
5e+06
5e+06
5e+06
5e+06
5e+06
5e+06
5e+06
5e+06
5e+06
5e+06
5e+06
5e+06
5e+06
5e+06
5e+06
5e+06
5e+06
5e+06
5e+06
5e+06
5e+06
5e+06
5e+06
5e+06
5e+06
5e+06
5e+06
5e+06
5e+06
5e+06
5e+06
5e+06
5e+06
5e+06
5e+06
5e+06
5e+06
5e+06
5e+06
5e+06
5e+06
5e+06
5e+06
5e+06
5e+06
5e+06
5e+06
5e+06
5e+06
5e+06
5e+06
5e+06
5e+06
5e+06
5e+06
5e+06
5e+06
5e+06
5e+06
5e+06
5e+06
5e+06
5e+06
5e+06
5e+06
5e+06
5e+06
5e+06
5e+06
5e+06
5e+06
5e+06
5e+06
5e+06
5e+06
5e+06
5e+06
5e+06
5e+06
5e+06
5e+06
5e+06
5e+06
5e+06
5e+06
5e+06
5e+06
5e+06
5e+06
5e+06
5e+06
5e+06
5e+06
5e+06
5e+06
5e+06
5e+06
5e+06
5e+06
5e+06
5e+06
5e+06
5e+06
5e+06
5e+06
5e+06
5e+06
5e+06
5e+06
5e+06
5e+06
5e+06
5e+06
5e+06
5e+06
5e+06
5e+06
5e+06
5e+06
5e+06
5e+06
5e+06
5e+06
5e+06
5e+06
5e+06
5e+06
5e+06
5e+06
5e+06
5e+06
5e+06
5e+06
5e+06
5e+06
5e+06
5e+06
5e+06
5e+06
5e+06
5e+06
5e+06
5e+06
5e+06
5e+06
5e+06
5e+06
5e+06
5e+06
5e+06
5e+06
5e+06
5e+06
5e+06
5e+06
5e+06
5e+06
5e+06
5e+06
5e+06
5e+06
5e+06
5e+06
5e+06
5e+06
5e+06
5e+06
5e+06
5e+06
5e+06
5e+06
5e+06
5e+06
5e+06
5e+06
5e+06
5e+06
5e+06
5e+06
5e+06
5e+06
5e+06
5e+06
5e+06
5e+06
5e+06
5e+06
5e+06
5e+06
5e+06
5e+06
5e+06
5e+06
5e+06
5e+06
5e+06
5e+06
5e+06
5e+06
5e+06
5e+06
5e+06
5e+06
5e+06
5e+06
5e+06
5e+06
5e+06
5e+06
5e+06
5e+06
5e+06
5e+06
5e+06
5e+06
5e+06
5e+06
5e+06
5e+06
5e+06
5e+06
5e+06
5e+06
5e+06
5e+06
5e+06
5e+06
5e+06
5e+06
5e+06
5e+06
5e+06
5e+06
5e+06
5e+06
5e+06
5e+06
5e+06
5e+06
5e+06
5e+06
5e+06
5e+06
5e+06
5e+06
5e+06
5e+06
5e+06
5e+06
5e+06
5e+06
5e+06
5e+06
5e+06
5e+06
5e+06
5e+06
5e+06
5e+06
5e+06
5e+06
5e+06
5e+06
5e+06
5e+06
5e+06
5e+06
5e+06
5e+06
5e+06
5e+06
5e+06
5e+06
5e+06
5e+06
5e+06
5e+06
5e+06
5e+06
5e+06
5e+06
5e+06
5e+06
5e+06
5e+06
5e+06
5e+06
5e+06
5e+06
5e+06
5e+06
5e+06
5e+06
5e+06
5e+06
5e+06
5e+06
5e+06
5e+06
5e+06
5e+06
5e+06
5e+06
5e+06
5e+06
5e+06
5e+06
5e+06
5e+06
5e+06
5e+06
5e+06
5e+06
5e+06
5e+06
5e+06
5e+06
5e+06
5e+06
5e+06
5e+06
5e+06
5e+06
5e+06
5e+06
5e+06
5e+06
5e+06
5e+06
5e+06
5e+06
5e+06
5e+06
5e+06
5e+06
5e+06
5e+06
5e+06
5e+06
5e+06
5e+06
5e+06
5e+06
5e+06
5e+06
5e+06
5e+06
5e+06
5e+06
5e+06
5e+06
5e+06
5e+06
5e+06
5e+06
5e+06
5e+06
5e+06
5e+06
5e+06
5e+06
5e+06
5e+06
5e+06
5e+06
5e+06
5e+06
5e+06
5e+06
5e+06
5e+06
5e+06
5e+06
5e+06
5e+06
5e+06
5e+06
5e+06
5e+06
5e+06
5e+06
5e+06
5e+06
5e+06
5e+06
5e+06
5e+06
5e+06
5e+06
5e+06
5e+06
5e+06
5e+06
5e+06
5e+06
5e+06
5e+06
5e+06
5e+06
5e+06
5e+06
5e+06
5e+06
5e+06
5e+06
5e+06
5e+06
5e+06
5e+06
5e+06
5e+06
5e+06
5e+06
5e+06
5e+06
5e+06
5e+06
5e+06
5e+06
5e+06
5e+06
5e+06
5e+06
5e+06
5e+06
5e+06
5e+06
5e+06
5e+06
5e+06
5e+06
5e+06
5e+06
5e+06
5e+06
5e+06
5e+06
5e+06
5e+06
5e+06
5e+06
5e+06
5e+06
5e+06
5e+06
5e+06
5e+06
5e+06
5e+06
5e+06
5e+06
5e+06
5e+06
5e+06
5e+06
5e+06
5e+06
5e+06
5e+06
5e+06
5e+06
5e+06
5e+06
5e+06
5e+06
5e+06
5e+06
5e+06
5e+06
5e+06
5e+06
5e+06
5e+06
5e+06
5e+06
5e+06
5e+06
5e+06
5e+06
5e+06
5e+06
5e+06
5e+06
5e+06
5e+06
5e+06
5e+06
5e+06
5e+06
5e+06
5e+06
5e+06
5e+06
5e+06
5e+06
5e+06
5e+06
5e+06
5e+06
5e+06
5e+06
5e+06
5e+06
5e+06
5e+06
5e+06
5e+06
5e+06
5e+06
5e+06
5e+06
5e+06
5e+06
5e+06
5e+06
5e+06
5e+06
5e+06
5e+06
5e+06
5e+06
5e+06
5e+06
5e+06
5e+06
5e+06
5e+06
5e+06
5e+06
5e+06
5e+06
5e+06
5e+06
5e+06
5e+06
5e+06
5e+06
5e+06
5e+06
5e+06
5e+06
5e+06
5e+06
5e+06
5e+06
5e+06
4.99999e+06
4.99999e+06
4.99999e+06
4.99998e+06
4.99997e+06
4.99996e+06
4.99995e+06
4.99992e+06
4.99989e+06
4.99985e+06
4.9998e+06
4.99973e+06
4.99963e+06
4.99951e+06
4.99935e+06
4.99914e+06
4.99887e+06
4.99854e+06
4.99812e+06
4.99759e+06
4.99694e+06
4.99614e+06
4.99518e+06
4.99402e+06
4.99264e+06
4.99101e+06
4.98909e+06
4.98688e+06
4.98432e+06
4.98141e+06
4.97811e+06
4.97441e+06
4.97028e+06
4.96572e+06
4.96072e+06
4.95528e+06
4.94939e+06
4.94306e+06
4.93631e+06
4.92914e+06
4.92159e+06
4.91366e+06
4.90539e+06
4.8968e+06
4.88791e+06
4.87877e+06
4.86938e+06
4.8598e+06
4.85003e+06
4.8401e+06
4.83004e+06
4.81988e+06
4.80962e+06
4.79929e+06
4.7889e+06
4.77846e+06
4.768e+06
4.75751e+06
4.74701e+06
4.73649e+06
4.72598e+06
4.71547e+06
4.70496e+06
4.69446e+06
4.68397e+06
4.67348e+06
4.66301e+06
4.65256e+06
4.64211e+06
4.63168e+06
4.62126e+06
4.61085e+06
4.60045e+06
4.59006e+06
4.57969e+06
4.56932e+06
4.55896e+06
4.54861e+06
4.53827e+06
4.52794e+06
4.51762e+06
4.5073e+06
4.49698e+06
4.48667e+06
4.47637e+06
4.46606e+06
4.45576e+06
4.44547e+06
4.43517e+06
4.42488e+06
4.41458e+06
4.40429e+06
4.39399e+06
4.3837e+06
4.3734e+06
4.3631e+06
4.3528e+06
4.34249e+06
4.33218e+06
4.32187e+06
4.31155e+06
4.30123e+06
4.29091e+06
4.28058e+06
4.27024e+06
4.25991e+06
4.24956e+06
4.23921e+06
4.22886e+06
4.2185e+06
4.20813e+06
4.19776e+06
4.18739e+06
4.177e+06
4.16662e+06
4.15622e+06
4.14583e+06
4.13542e+06
4.12501e+06
4.11459e+06
4.10417e+06
4.09373e+06
4.08329e+06
4.07284e+06
4.06239e+06
4.05192e+06
4.04144e+06
4.03095e+06
4.02045e+06
4.00994e+06
3.99942e+06
3.98888e+06
3.97833e+06
3.96777e+06
3.95718e+06
3.94659e+06
3.93598e+06
3.92534e+06
3.9147e+06
3.90403e+06
3.89334e+06
3.88264e+06
3.87191e+06
3.86117e+06
3.85042e+06
3.83965e+06
3.82887e+06
3.81809e+06
3.80734e+06
3.79659e+06
3.78585e+06
3.77509e+06
3.76431e+06
3.75352e+06
3.74271e+06
3.73189e+06
3.72106e+06
3.71022e+06
3.69938e+06
3.68852e+06
3.67765e+06
3.66677e+06
3.65588e+06
3.64498e+06
3.63408e+06
3.62316e+06
3.61224e+06
3.6013e+06
3.59036e+06
3.57941e+06
3.56845e+06
3.55748e+06
3.54651e+06
3.53553e+06
3.52453e+06
3.51354e+06
3.50253e+06
3.49153e+06
3.4805e+06
3.46949e+06
3.45845e+06
3.44743e+06
3.43638e+06
3.42534e+06
3.4143e+06
3.40325e+06
3.39222e+06
3.38115e+06
3.37012e+06
3.35907e+06
3.34799e+06
3.33693e+06
3.32588e+06
3.31482e+06
3.30375e+06
3.2927e+06
3.28165e+06
3.2706e+06
3.25955e+06
3.2485e+06
3.23747e+06
3.22643e+06
3.21541e+06
3.20439e+06
3.19338e+06
3.18238e+06
3.17139e+06
3.16042e+06
3.14946e+06
3.13851e+06
3.12758e+06
3.11666e+06
3.10577e+06
3.09489e+06
3.08404e+06
3.07321e+06
3.06241e+06
3.05163e+06
3.04089e+06
3.03017e+06
3.01949e+06
3.00884e+06
2.99824e+06
2.98767e+06
2.97715e+06
2.96667e+06
2.95624e+06
2.94587e+06
2.93556e+06
2.92531e+06
2.91512e+06
2.90501e+06
2.89496e+06
2.885e+06
2.87513e+06
2.86534e+06
2.85565e+06
2.84606e+06
2.83658e+06
2.8272e+06
2.81794e+06
2.80879e+06
2.79974e+06
2.79076e+06
2.78153e+06
2.77186e+06
)
;

boundaryField
{
    sideLeft
    {
        type            symmetryPlane;
    }
    sideRight
    {
        type            myWaveTransmissive;
        phi             phi.air;
        rho             rho.air;
        psi             thermo:psi.air;
        gamma           1.4;
        fieldInf        100000;
        lInf            10;
        value           uniform 2.76579e+06;
    }
    topbottom
    {
        type            empty;
    }
    frontback
    {
        type            empty;
    }
}


// ************************************************************************* //
