/*--------------------------------*- C++ -*----------------------------------*\
| =========                 |                                                 |
| \\      /  F ield         | OpenFOAM: The Open Source CFD Toolbox           |
|  \\    /   O peration     | Version:  2.4.0                                 |
|   \\  /    A nd           | Web:      www.OpenFOAM.org                      |
|    \\/     M anipulation  |                                                 |
\*---------------------------------------------------------------------------*/
FoamFile
{
    version     2.0;
    format      ascii;
    class       surfaceScalarField;
    location    "0.07";
    object      phi;
}
// * * * * * * * * * * * * * * * * * * * * * * * * * * * * * * * * * * * * * //

dimensions      [0 3 -1 0 0 0 0];

internalField   nonuniform List<scalar> 
999
(
7.88435e-14
2.98428e-13
9.2903e-13
6.51817e-13
1.72909e-12
1.69322e-12
5.76392e-13
1.04027e-12
-3.98014e-13
-1.06235e-12
-1.60581e-12
-1.12349e-12
-1.76915e-12
-1.21397e-12
-1.13898e-12
-3.83693e-13
9.10512e-14
1.02318e-12
3.02237e-12
2.95303e-12
3.45201e-12
2.31455e-12
2.52042e-12
1.53162e-12
1.50598e-12
2.43472e-12
2.13173e-12
1.84312e-12
1.28833e-12
1.22177e-12
1.36424e-12
2.11448e-12
8.93175e-13
1.98951e-13
4.19717e-13
2.13982e-13
-1.11927e-13
8.79428e-13
1.81971e-12
1.75081e-12
1.54275e-12
1.72928e-12
1.19983e-12
1.31992e-12
1.05606e-12
3.98494e-13
2.04901e-13
2.55796e-13
-8.71413e-13
-1.01361e-12
-2.20245e-12
-2.74669e-12
-2.88483e-12
-3.70538e-12
-3.84596e-12
-3.53426e-12
-3.45092e-12
-3.86244e-12
-5.36309e-12
-4.37268e-12
-4.74616e-12
-3.79808e-12
-2.58147e-12
-3.24615e-12
-3.97045e-12
-2.00574e-12
-2.37982e-12
-1.00079e-12
-9.1982e-13
-1.17285e-12
-1.26537e-12
-2.03407e-12
-9.6821e-13
-8.37135e-13
-4.44037e-13
1.42106e-14
-5.66284e-13
-2.29732e-13
2.64363e-13
8.71415e-13
1.18044e-12
1.03264e-12
1.17467e-12
1.74497e-12
7.65548e-13
4.75744e-13
-4.40537e-13
-3.09888e-14
1.72208e-13
7.71899e-13
-7.05354e-13
-9.51332e-13
-1.00922e-12
-1.61688e-12
-1.98687e-12
-3.28044e-12
-4.99932e-12
-4.68616e-12
-4.94323e-12
-4.006e-12
-4.17358e-12
-2.77427e-12
-1.64256e-12
-1.50895e-12
-2.45651e-12
-9.2927e-13
-1.76689e-12
-1.27707e-12
-1.8946e-12
-2.21265e-12
-1.96458e-12
-2.51382e-12
-1.08273e-12
-2.27593e-13
-5.51549e-13
-1.05428e-12
-1.51647e-12
-3.02961e-13
-4.82118e-13
-6.53329e-14
5.30691e-13
9.26253e-13
1.78537e-12
1.11712e-12
1.59966e-13
2.95866e-13
-2.18978e-13
-1.49963e-12
-9.5206e-13
-9.70794e-13
-9.67219e-13
-2.11975e-12
-2.33096e-12
-2.64459e-12
-2.43231e-12
-3.30167e-12
-3.20228e-12
-1.99883e-12
-9.01471e-13
-1.01671e-12
-1.39266e-12
-8.88317e-13
-5.7569e-13
-4.26943e-13
-5.01741e-13
-9.46384e-13
-8.1648e-13
-9.57962e-16
-6.9535e-13
-5.59695e-13
-8.84211e-13
-8.72766e-13
-1.21082e-12
-1.44295e-12
-1.92232e-12
-9.36889e-13
-1.24803e-12
-6.17301e-13
-5.0989e-13
3.27024e-13
5.32888e-13
1.10731e-12
1.68235e-12
8.68896e-13
4.99154e-13
2.10097e-13
4.41288e-13
9.11307e-13
9.8687e-13
2.06991e-12
2.69295e-12
2.48964e-12
2.03942e-12
1.89624e-12
2.03512e-12
1.7599e-12
9.27819e-13
3.74674e-13
-1.27897e-13
-3.6997e-13
1.13687e-13
-6.537e-13
-4.95858e-13
-1.13687e-13
-1.01273e-12
-1.45548e-12
-1.45211e-12
-1.35596e-13
5.39576e-13
1.41058e-13
8.64595e-13
7.16898e-13
6.97763e-13
4.29408e-15
-9.9028e-13
-2.77776e-13
-6.52548e-13
-3.0737e-13
-1.03401e-12
-2.27636e-12
-1.9579e-12
-1.63307e-12
-1.22719e-12
-8.40056e-13
-7.41426e-13
-4.86732e-13
-5.9591e-13
-2.13304e-12
-2.83851e-12
-2.4565e-12
-2.861e-12
-2.53523e-12
-1.40206e-12
-1.86405e-12
-1.6728e-12
-1.0249e-12
-1.7462e-12
-1.89119e-12
-4.56271e-13
1.00494e-12
-3.97904e-13
1.00332e-12
1.26353e-12
-7.0094e-13
-6.12972e-13
-9.25152e-13
9.94765e-14
5.41023e-13
1.87435e-13
5.12308e-13
-3.32226e-13
-4.4761e-13
-1.01177e-12
-9.19983e-13
-1.86258e-12
-2.50654e-13
9.68649e-14
-4.78482e-13
-1.16504e-12
-6.59801e-13
5.52749e-13
3.76294e-13
5.02323e-13
1.42103e-14
-5.20076e-13
-3.34857e-13
-2.41584e-13
3.29732e-13
-4.74304e-13
2.70006e-13
-3.70127e-13
5.81461e-13
1.06854e-12
2.26599e-12
1.52465e-12
1.81375e-12
3.38205e-12
2.85803e-12
1.67999e-12
2.92869e-12
5.16144e-12
5.01447e-12
4.48613e-12
2.19855e-12
3.15028e-12
3.55521e-12
2.951e-12
2.57869e-12
1.51238e-12
2.18034e-12
1.94036e-12
3.4106e-13
-3.26849e-13
-1.12577e-12
-1.12975e-12
-2.56636e-12
-2.1609e-12
-2.7365e-12
-2.64119e-12
-2.65482e-12
-2.66433e-12
-2.71534e-12
-1.92926e-12
3.94823e-13
1.16529e-12
-9.94759e-14
4.5007e-13
8.40407e-13
2.45076e-12
2.3528e-12
2.48421e-12
1.86124e-12
2.40805e-12
1.47713e-12
1.8128e-12
1.21351e-12
1.80759e-12
2.38305e-12
1.48411e-12
1.75132e-12
1.6534e-12
1.41991e-12
2.82873e-12
1.44404e-12
8.54082e-13
1.11926e-13
-7.10541e-14
-1.26623e-12
-1.06189e-12
-1.82725e-12
-2.10597e-12
-1.41808e-12
-6.31054e-13
-2.24429e-13
-1.14964e-12
-1.72014e-12
-1.17651e-12
-2.18376e-12
-2.16066e-12
-1.47126e-12
-1.72893e-12
-3.0865e-12
-2.00674e-12
-1.5318e-12
-5.92058e-13
-1.43156e-12
-7.46021e-13
-1.03671e-12
-2.22587e-12
-2.82957e-12
-2.51559e-12
-5.52205e-13
-5.23167e-13
-3.86739e-13
-5.73213e-13
-8.22903e-13
-6.47454e-13
-9.00781e-13
-2.98858e-13
3.84775e-13
7.83925e-13
-7.86263e-13
-3.35934e-13
-9.51198e-13
-1.99414e-13
1.63576e-13
1.42109e-13
2.83226e-13
3.89754e-13
3.26468e-13
9.90546e-13
2.63928e-12
2.1006e-12
2.62996e-12
3.25962e-12
3.05193e-12
1.72864e-12
8.71819e-13
1.23655e-12
1.67951e-12
1.43211e-12
2.70612e-12
2.4041e-12
1.62123e-12
2.11165e-12
4.29577e-13
4.065e-13
3.69482e-13
4.48791e-13
1.40871e-12
8.82907e-13
8.88821e-13
3.64484e-13
3.989e-13
1.22673e-13
6.71865e-14
1.07211e-12
1.34574e-12
6.10181e-13
3.30322e-13
1.59924e-12
1.81827e-12
2.09806e-12
2.69497e-12
1.58603e-12
3.77342e-12
3.6619e-12
3.65315e-12
2.77959e-12
3.81473e-12
2.01206e-12
1.16976e-12
1.87712e-12
2.96826e-12
2.05337e-12
2.67842e-12
3.94723e-12
5.04818e-12
6.36838e-12
4.99165e-12
4.24874e-12
5.05963e-12
3.56849e-12
2.49062e-12
1.83049e-12
2.16104e-12
1.77813e-12
8.02853e-13
1.55089e-12
8.51866e-13
3.95161e-13
7.93241e-13
1.58786e-12
1.09075e-12
1.16071e-13
-2.91135e-13
-2.88557e-12
-3.42496e-12
-2.49683e-12
-2.29937e-12
-3.07899e-12
-2.97618e-12
-2.25617e-12
-7.41631e-13
-7.51276e-13
-3.41061e-13
-6.11561e-13
-3.45561e-13
-1.25263e-12
-1.87427e-12
-2.89309e-12
-2.35167e-12
-1.37782e-12
-1.26123e-12
-1.38442e-12
-1.50902e-12
-2.21615e-12
-1.75029e-12
-2.00621e-12
-3.03268e-12
-2.13823e-12
-1.74151e-12
-1.71586e-12
-9.33208e-13
-6.25334e-13
-1.13016e-12
-1.02052e-12
-2.00577e-12
-2.96963e-12
-1.51306e-12
-8.21781e-13
-1.29716e-12
-4.13466e-13
1.59555e-13
9.8502e-13
1.51219e-12
1.60303e-12
1.50264e-12
-1.42547e-13
2.27317e-13
1.53247e-12
6.7644e-13
1.71002e-13
-8.38912e-13
-2.27374e-13
7.10543e-13
1.64446e-12
1.08435e-12
1.84572e-12
1.60125e-12
2.26424e-12
2.66112e-12
2.50192e-12
1.72693e-12
1.41753e-12
1.5618e-12
2.48878e-12
2.26327e-12
3.18414e-12
2.73725e-12
1.36222e-12
1.16945e-12
1.16324e-12
-5.012e-16
-6.45267e-13
-9.7173e-13
-9.41781e-13
-7.64615e-13
-4.78723e-13
-1.49351e-13
-4.37131e-14
9.32795e-13
6.33247e-13
1.84833e-12
1.22057e-12
1.70385e-12
2.09773e-12
1.87858e-12
1.93344e-12
3.05778e-12
2.31803e-12
2.50456e-12
2.50786e-12
1.83406e-12
1.35263e-12
6.99305e-13
9.38097e-13
5.75789e-13
-5.23552e-13
-8.8584e-13
-1.52831e-12
-5.39015e-13
-1.27105e-12
-1.48388e-12
-1.03978e-12
-1.44957e-12
-3.1379e-12
-2.47105e-12
-2.25643e-12
-2.91663e-12
-1.75902e-12
-9.97612e-13
-4.17591e-13
-4.21856e-13
5.17745e-13
4.39975e-13
-7.95305e-14
5.823e-13
6.51007e-13
-3.55271e-13
-9.17957e-13
-5.05795e-13
-2.27373e-13
2.3981e-12
3.01342e-12
2.34492e-12
1.2251e-12
2.46606e-12
3.12872e-12
4.02353e-12
5.27947e-12
4.711e-12
4.72433e-12
4.65171e-12
5.07432e-12
4.48848e-12
4.53872e-12
2.4454e-12
2.76786e-12
2.60351e-12
2.31751e-12
8.52195e-13
6.11801e-13
-3.55291e-13
-8.4633e-13
5.8479e-13
1.05729e-12
1.14129e-13
-5.75805e-13
-8.72584e-13
3.58661e-13
8.74755e-13
-5.68435e-14
-4.98397e-13
-7.90048e-13
-7.1648e-13
-8.30199e-13
-1.62733e-12
-2.36404e-12
-3.33629e-12
-3.80333e-12
-3.80256e-12
-3.5611e-12
-2.61603e-12
-2.45646e-12
-2.17248e-12
-2.01431e-12
-1.58552e-12
-1.31257e-12
-1.6158e-12
-1.38321e-12
-4.07226e-13
-1.01632e-13
-1.99964e-13
-6.32921e-13
-1.20887e-12
-1.26056e-12
-2.3333e-12
-2.52439e-12
-3.11031e-12
-2.40493e-12
-2.65095e-12
-2.5481e-12
-1.23994e-12
-3.98991e-13
5.25802e-13
-7.03558e-13
5.17639e-13
1.42337e-12
1.93642e-13
-7.45685e-14
3.34467e-13
2.70752e-13
-6.1686e-13
-1.16321e-12
-1.10256e-12
-1.78786e-12
-3.84629e-12
-4.46776e-12
-6.20124e-12
-5.0427e-12
-4.26805e-12
-2.73013e-12
-1.96262e-12
-2.87108e-12
-2.08624e-12
-1.36112e-12
-4.70619e-13
-4.08447e-13
-4.41896e-14
-7.63136e-13
4.62302e-13
1.20683e-12
5.88574e-13
9.12558e-13
-1.42111e-14
-8.17917e-13
-1.53501e-12
-2.54843e-12
-2.51752e-12
-3.55609e-12
-3.33993e-12
-1.82798e-12
-1.65325e-12
-1.12745e-12
-3.05309e-13
-3.22196e-13
-1.22732e-12
-1.91659e-12
-1.91243e-12
-2.45794e-12
-1.87814e-12
-1.18206e-12
-1.93716e-12
-1.2235e-12
-1.28154e-12
-1.48833e-12
-9.00228e-13
-3.63895e-13
-1.00713e-12
-5.54832e-15
9.80875e-13
1.25418e-12
1.13687e-13
1.02023e-12
1.38575e-12
1.7747e-12
2.7446e-12
1.71444e-12
8.68335e-13
3.30047e-13
-1.12721e-13
6.74607e-13
3.6351e-13
-2.84217e-14
4.26325e-13
-2.13452e-14
7.22654e-13
1.36715e-12
2.5208e-13
2.44517e-13
8.86028e-13
3.29997e-13
3.4106e-13
-6.39488e-13
-1.27905e-12
6.03579e-13
1.51618e-12
1.63656e-12
1.43591e-12
1.58298e-12
2.51742e-12
1.15057e-12
1.25712e-12
1.25433e-12
1.43108e-12
1.13687e-13
-1.01705e-12
-7.3242e-13
-5.59187e-13
-1.38956e-12
-1.6012e-12
-2.09058e-12
-1.46574e-12
-1.26455e-12
-1.73191e-12
-6.42428e-13
-4.22726e-13
-8.61655e-14
-1.67993e-14
-3.26512e-13
-2.19544e-13
-7.86796e-14
-4.83169e-13
-1.25219e-12
-2.21069e-14
1.79329e-13
5.79948e-13
2.05517e-12
1.98084e-12
2.79491e-12
3.55138e-12
4.3776e-12
4.28398e-12
6.15398e-12
9.08926e-12
1.30733e-11
2.10207e-11
3.66922e-11
6.3067e-11
1.1076e-10
1.93585e-10
3.39657e-10
5.95244e-10
1.03761e-09
1.79847e-09
3.10465e-09
5.32855e-09
9.10003e-09
1.54556e-08
2.61114e-08
4.38757e-08
7.33251e-08
1.21877e-07
2.01459e-07
3.31157e-07
5.41304e-07
8.79802e-07
1.42181e-06
2.28451e-06
3.64931e-06
5.79529e-06
9.14871e-06
1.43563e-05
2.23922e-05
3.47137e-05
5.34844e-05
8.18936e-05
0.000124608
0.000188402
0.000283038
0.000422469
0.000626485
0.000922918
0.0013506
0.00196323
0.00283445
0.00406436
0.00578778
0.00818467
0.0114929
0.016024
0.0221817
0.0304842
0.0415896
0.0563244
0.0757156
0.101025
0.133783
0.175826
0.229329
0.296832
0.381264
0.485956
0.614639
0.771427
0.960788
1.18749
1.45652
1.77302
2.14215
2.56901
3.05845
3.61501
4.24274
4.94513
5.72496
6.58424
7.52418
8.5451
9.64647
10.827
12.0844
13.4159
14.818
16.2868
17.8177
19.4061
21.0471
22.7358
24.4672
26.2365
28.0392
29.8708
31.7274
33.6053
35.5011
37.4119
39.3351
41.2684
43.21
45.1581
47.1115
49.0691
51.0301
52.9936
54.9593
56.9267
58.8955
60.8656
62.8368
64.809
66.7823
68.7567
70.7322
72.7089
74.687
76.6664
78.6473
80.6298
82.6142
84.6004
86.5887
88.5792
90.5721
92.5674
94.5654
96.5662
98.5699
100.577
102.587
104.6
106.617
108.637
110.662
112.69
114.722
116.759
118.799
120.844
122.894
124.948
127.007
129.07
131.139
133.212
135.291
137.375
139.464
141.558
143.657
145.762
147.872
149.987
152.108
154.234
156.366
158.504
160.647
162.796
164.951
167.112
169.279
171.451
173.631
175.816
178.008
180.206
182.412
184.624
186.843
189.07
191.304
193.545
195.795
198.053
200.318
202.592
204.875
207.167
209.467
211.777
214.097
216.426
218.765
221.113
223.472
225.841
228.221
230.61
232.939
235.273
237.613
239.958
242.31
244.669
247.034
249.407
251.786
254.172
256.564
258.962
261.367
263.778
266.196
268.619
271.049
273.485
275.927
278.376
280.83
283.29
285.756
288.228
290.706
293.19
295.68
298.175
300.676
303.182
305.694
308.211
310.734
313.262
315.795
318.332
320.876
323.422
325.975
328.528
331.088
333.653
336.223
338.799
341.378
343.96
346.544
349.133
351.728
354.324
356.923
359.525
362.131
364.738
367.348
369.96
372.574
375.19
377.806
380.424
383.042
385.661
388.279
390.897
393.514
396.129
398.743
401.355
403.964
406.57
409.172
411.77
414.363
416.95
419.531
422.105
424.671
427.229
429.777
432.314
434.84
437.353
439.852
442.335
444.803
447.252
449.681
452.09
454.476
456.837
459.172
461.479
463.756
466.002
468.216
470.398
472.38
474.706
477.92
)
;

boundaryField
{
    sideLeft
    {
        type            symmetryPlane;
        value           uniform 0;
    }
    sideRight
    {
        type            calculated;
        value           uniform 481.513;
    }
    topbottom
    {
        type            empty;
        value           nonuniform 0();
    }
    frontback
    {
        type            empty;
        value           nonuniform 0();
    }
}


// ************************************************************************* //
