/*--------------------------------*- C++ -*----------------------------------*\
| =========                 |                                                 |
| \\      /  F ield         | OpenFOAM: The Open Source CFD Toolbox           |
|  \\    /   O peration     | Version:  2.4.0                                 |
|   \\  /    A nd           | Web:      www.OpenFOAM.org                      |
|    \\/     M anipulation  |                                                 |
\*---------------------------------------------------------------------------*/
FoamFile
{
    version     2.0;
    format      ascii;
    class       surfaceScalarField;
    location    "0.07";
    object      phi.water;
}
// * * * * * * * * * * * * * * * * * * * * * * * * * * * * * * * * * * * * * //

dimensions      [0 3 -1 0 0 0 0];

internalField   nonuniform List<scalar> 
999
(
3.06217e-13
7.10543e-14
1.27009e-12
7.0866e-13
1.6154e-12
1.69322e-12
6.90079e-13
1.2108e-12
-1.70641e-13
-1.5171e-12
-1.37843e-12
-1.57823e-12
-1.826e-12
-1.15713e-12
-6.27389e-13
-3.83693e-13
9.10512e-14
1.02318e-12
3.1929e-12
3.06672e-12
3.33833e-12
2.08718e-12
2.6341e-12
1.19056e-12
1.39229e-12
2.49156e-12
2.47279e-12
1.89997e-12
1.23149e-12
1.16493e-12
1.64846e-12
2.11448e-12
1.00686e-12
1.98951e-13
-3.50305e-14
2.70825e-13
1.72291e-13
9.93115e-13
1.76287e-12
1.75081e-12
1.20169e-12
1.6156e-12
1.88195e-12
1.03571e-12
6.01313e-13
4.55338e-13
9.12141e-14
-2.84215e-14
-3.02979e-13
-1.07046e-12
-2.20245e-12
-2.46247e-12
-2.94167e-12
-3.81906e-12
-3.84596e-12
-3.53426e-12
-3.39407e-12
-3.91928e-12
-5.07887e-12
-4.20215e-12
-5.2009e-12
-3.96861e-12
-2.35409e-12
-3.1893e-12
-3.57254e-12
-2.63102e-12
-2.15245e-12
-1.11447e-12
-8.62976e-13
-8.88635e-13
-1.4359e-12
-2.37513e-12
-5.70307e-13
-1.12135e-12
-3.87193e-13
-1.5632e-13
-5.66284e-13
-2.86575e-13
4.91737e-13
6.44041e-13
1.18044e-12
8.0527e-13
1.85679e-12
1.40391e-12
1.04977e-12
1.91527e-13
-9.94761e-14
-2.01519e-13
3.42738e-13
7.15055e-13
-6.48511e-13
-1.40608e-12
-4.97627e-13
-2.41269e-12
-1.87318e-12
-3.28044e-12
-4.3172e-12
-4.79984e-12
-4.88639e-12
-4.68812e-12
-3.94621e-12
-2.26268e-12
-1.98362e-12
-1.67948e-12
-2.1723e-12
-1.44086e-12
-1.25529e-12
-1.8455e-12
-1.61038e-12
-1.98528e-12
-2.30564e-12
-2.28644e-12
-9.69042e-13
-4.54967e-13
-4.37862e-13
-1.56587e-12
-1.00488e-12
-4.16648e-13
-4.82118e-13
-8.48949e-15
5.87535e-13
1.03994e-12
1.61484e-12
7.76064e-13
7.85244e-13
2.39023e-13
-2.18979e-13
-1.44278e-12
-1.0089e-12
-1.14132e-12
-6.26158e-13
-2.23344e-12
-2.27412e-12
-2.41721e-12
-2.9439e-12
-3.13114e-12
-2.74754e-12
-2.56726e-12
-9.58314e-13
-9.0302e-13
-1.50635e-12
-7.17787e-13
-6.89377e-13
-2.90387e-14
-5.58585e-13
-8.32697e-13
-1.04385e-12
-1.71488e-13
-6.9535e-13
-5.02852e-13
-1.05474e-12
-9.86453e-13
-1.04029e-12
-1.55664e-12
-1.80863e-12
-8.23202e-13
-1.53225e-12
-5.03615e-13
-5.66734e-13
3.27024e-13
3.05514e-13
1.39153e-12
1.68235e-12
6.98365e-13
6.69684e-13
9.64106e-14
7.25506e-13
9.6815e-13
5.32123e-13
1.78569e-12
2.80664e-12
2.48964e-12
2.03942e-12
1.95308e-12
1.97828e-12
1.93043e-12
7.57289e-13
3.17831e-13
-7.10536e-14
-1.42596e-13
-4.54748e-13
-1.42109e-13
-3.82171e-13
-8.52651e-13
-6.14824e-13
-1.17126e-12
-1.45211e-12
-7.87521e-14
2.55359e-13
4.82119e-13
4.09847e-13
1.00111e-12
1.56424e-14
4.02198e-13
-8.1975e-13
-6.18837e-13
-4.25174e-13
-3.0737e-13
-8.63476e-13
-2.10583e-12
-2.18528e-12
-1.74676e-12
-1.22719e-12
-8.40056e-13
-4.57208e-13
-7.14106e-13
-4.82223e-13
-2.0762e-12
-2.66798e-12
-2.39965e-12
-3.31575e-12
-2.30785e-12
-1.28837e-12
-1.52298e-12
-1.72964e-12
-1.30912e-12
-1.68935e-12
-1.43644e-12
-4.56271e-13
6.07033e-13
-1.13687e-13
9.46472e-13
9.79314e-13
-2.46193e-13
-1.46562e-12
-5.27248e-13
2.13163e-13
3.70492e-13
1.30592e-13
7.96526e-13
-4.45913e-13
-7.31827e-13
-5.57026e-13
-1.2042e-12
-1.40783e-12
-4.78028e-13
-1.68219e-14
-7.62699e-13
-8.23984e-13
-1.05771e-12
7.23279e-13
4.33138e-13
6.1601e-13
-3.2685e-13
-2.92702e-13
-2.21171e-13
-2.98428e-13
1.02358e-13
2.07817e-13
-6.96332e-13
-2.90663e-14
9.22521e-13
7.84318e-13
2.26599e-12
1.41097e-12
1.75691e-12
3.43889e-12
3.0854e-12
1.96421e-12
2.70131e-12
5.33197e-12
4.90078e-12
4.14507e-12
3.0512e-12
2.63869e-12
3.1573e-12
3.23521e-12
2.35132e-12
2.30819e-12
1.89612e-12
1.94036e-12
1.13687e-13
-3.26849e-13
-8.98392e-13
-1.01606e-12
-2.79373e-12
-2.21774e-12
-2.45228e-12
-2.92541e-12
-2.88219e-12
-2.4938e-12
-2.43112e-12
-1.70189e-12
5.37628e-14
1.16529e-12
-9.94759e-14
5.06914e-13
1.01094e-12
2.33707e-12
2.18227e-12
2.42736e-12
2.2023e-12
2.29437e-12
1.42028e-12
1.86965e-12
1.38404e-12
1.75075e-12
2.55358e-12
8.58829e-13
1.92185e-12
1.71024e-12
1.81781e-12
2.20346e-12
1.55772e-12
1.1383e-12
-1.76115e-15
-7.10541e-14
-1.37992e-12
-1.11874e-12
-2.05462e-12
-2.04912e-12
-9.63337e-13
-8.58427e-13
-5.38992e-14
-1.60438e-12
-1.49277e-12
-1.23336e-12
-1.89955e-12
-2.10382e-12
-1.75548e-12
-1.78577e-12
-2.91597e-12
-1.89305e-12
-1.47496e-12
-1.0468e-12
-8.63122e-13
-9.16551e-13
-9.79865e-13
-2.45325e-12
-2.43167e-12
-2.68612e-12
-8.36422e-13
-5.80011e-13
-7.278e-13
-4.02683e-13
-8.22903e-13
-7.61141e-13
-8.43937e-13
-2.42014e-13
3.84775e-13
1.18183e-12
-5.58889e-13
-7.90682e-13
-8.94354e-13
-2.56257e-13
1.06732e-13
3.12639e-13
-1.71522e-13
6.73971e-13
3.26468e-13
1.16108e-12
2.07085e-12
2.27113e-12
2.91417e-12
3.43015e-12
2.99509e-12
1.1602e-12
1.32657e-12
1.40708e-12
1.45214e-12
1.77317e-12
2.64927e-12
2.23357e-12
1.67808e-12
1.99796e-12
4.29577e-13
2.92813e-13
1.42108e-13
8.46695e-13
1.29502e-12
9.96593e-13
8.88821e-13
2.34237e-14
2.85214e-13
1.22673e-13
5.78777e-13
1.12896e-12
1.00468e-12
6.67025e-13
7.28226e-13
1.48555e-12
1.42036e-12
2.26859e-12
2.80865e-12
1.52919e-12
3.83026e-12
3.60505e-12
3.5963e-12
2.95012e-12
3.87158e-12
1.72784e-12
1.28345e-12
1.87712e-12
2.51351e-12
2.67864e-12
2.62157e-12
4.06092e-12
5.21871e-12
5.97047e-12
4.87797e-12
4.41927e-12
4.71857e-12
4.08008e-12
2.37693e-12
1.77365e-12
2.21789e-12
1.83497e-12
1.31444e-12
1.15299e-12
5.10806e-13
6.79379e-13
9.06928e-13
1.81523e-12
9.77068e-13
-5.44593e-14
-6.89039e-13
-2.48766e-12
-3.19758e-12
-2.95158e-12
-2.01515e-12
-2.62425e-12
-3.31724e-12
-2.31301e-12
-8.55318e-13
-7.51276e-13
-1.13687e-13
-5.54718e-13
-6.29778e-13
-1.65054e-12
-1.24899e-12
-3.06362e-12
-2.01061e-12
-1.20729e-12
-1.77282e-12
-1.38442e-12
-1.45218e-12
-2.21615e-12
-1.46607e-12
-2.1199e-12
-2.74846e-12
-2.4793e-12
-1.74151e-12
-1.43164e-12
-1.16058e-12
-7.39021e-13
-7.89103e-13
-1.41843e-12
-1.89208e-12
-3.08332e-12
-1.05831e-12
-1.16284e-12
-1.7519e-12
4.12817e-14
4.58681e-14
9.8502e-13
1.56903e-12
2.11463e-12
1.27527e-12
-3.6992e-13
1.70474e-13
1.41878e-12
7.33283e-13
-2.26902e-13
7.05823e-14
-5.11591e-13
3.69482e-13
1.81499e-12
9.13823e-13
1.84572e-12
2.11284e-12
1.98002e-12
2.54744e-12
2.89982e-12
1.27218e-12
1.41753e-12
1.44811e-12
2.88668e-12
2.26327e-12
3.07045e-12
2.79409e-12
1.53275e-12
1.33998e-12
8.79023e-13
2.26872e-13
-9.29484e-13
-8.58043e-13
-1.05547e-12
-9.91989e-13
-3.65036e-13
-9.25081e-14
-1.00556e-13
7.62264e-13
8.60621e-13
1.90517e-12
9.36358e-13
1.7607e-12
2.15457e-12
1.70805e-12
2.2745e-12
2.88725e-12
2.71594e-12
2.1635e-12
2.45102e-12
1.94775e-12
1.40948e-12
8.12992e-13
7.67567e-13
6.32632e-13
-8.07769e-13
-8.28997e-13
-1.52831e-12
-2.54798e-13
-1.44158e-12
-1.59757e-12
-1.03978e-12
-1.79063e-12
-2.68315e-12
-2.41421e-12
-2.54064e-12
-2.80295e-12
-1.70217e-12
-8.83925e-13
-4.74434e-13
-9.33447e-13
8.01962e-13
4.39975e-13
3.41564e-14
5.25456e-13
8.25727e-14
2.13163e-13
-9.17957e-13
-7.90012e-13
1.84351e-19
2.17072e-12
3.01342e-12
2.85651e-12
9.40881e-13
2.57975e-12
2.78766e-12
4.25091e-12
4.65419e-12
5.33628e-12
5.00855e-12
4.70856e-12
5.01748e-12
4.31795e-12
4.02713e-12
2.90014e-12
2.76786e-12
2.48982e-12
2.48804e-12
1.13641e-12
1.57054e-13
-8.10039e-13
-7.32643e-13
4.71103e-13
1.62572e-12
1.70973e-13
-6.89492e-13
-1.09996e-12
7.44438e-14
1.21582e-12
1.7053e-13
-6.12084e-13
-9.60579e-13
-6.02794e-13
-1.00073e-12
-1.96839e-12
-1.85245e-12
-3.50682e-12
-3.80333e-12
-3.8594e-12
-3.22004e-12
-2.84341e-12
-2.57015e-12
-2.11564e-12
-1.61641e-12
-1.86974e-12
-1.42626e-12
-1.44527e-12
-1.32636e-12
-3.50383e-13
-5.5638e-13
1.41096e-13
-6.32921e-13
-1.26572e-12
-1.3174e-12
-2.3333e-12
-2.0128e-12
-3.224e-12
-2.63231e-12
-3.04886e-12
-2.20704e-12
-1.23994e-12
-2.28461e-13
2.41585e-13
-4.76185e-13
5.17639e-13
7.98095e-13
8.75763e-13
-1.88255e-13
2.2078e-13
2.70752e-13
-7.30547e-13
-1.10637e-12
-9.32031e-13
-1.78786e-12
-4.35788e-12
-3.95617e-12
-6.1444e-12
-5.21323e-12
-4.32489e-12
-2.50276e-12
-2.41736e-12
-2.75739e-12
-1.63149e-12
-1.19059e-12
-8.11679e-13
-3.51603e-13
-1.57876e-13
-8.76823e-13
7.46519e-13
1.14999e-12
5.31731e-13
1.13993e-12
-3.55272e-13
-6.47387e-13
-1.76238e-12
-2.03684e-12
-2.91542e-12
-3.55609e-12
-3.1694e-12
-1.54376e-12
-1.59641e-12
-1.52536e-12
-4.75839e-13
-3.79039e-13
-1.11363e-12
-2.03028e-12
-1.79874e-12
-2.28741e-12
-1.87814e-12
-1.35259e-12
-1.82348e-12
-1.33719e-12
-1.39523e-12
-1.14727e-12
-1.07076e-12
-7.61799e-13
-5.5238e-13
-5.54833e-15
8.67188e-13
1.36787e-12
1.13687e-13
9.6339e-13
1.38575e-12
2.11576e-12
2.3467e-12
1.43023e-12
1.43677e-12
4.58297e-14
1.71496e-13
2.19859e-13
4.20354e-13
8.52651e-14
2.55795e-13
9.23417e-14
6.08967e-13
1.31031e-12
3.08924e-13
3.58203e-13
9.99715e-13
2.1631e-13
2.84217e-13
-5.25801e-13
-1.22221e-12
2.62518e-13
1.8004e-12
1.2955e-12
2.06119e-12
1.35561e-12
2.40373e-12
1.43478e-12
1.14344e-12
1.31117e-12
1.3174e-12
5.68438e-14
-7.8968e-13
-7.3242e-13
-7.29717e-13
-1.27588e-12
-1.77173e-12
-1.92005e-12
-1.74996e-12
-1.77614e-12
-1.61822e-12
1.5338e-13
-8.77473e-13
8.43647e-14
9.68876e-14
-2.69668e-13
-2.76387e-13
-2.18362e-14
-7.67386e-13
-9.67968e-13
-1.35794e-13
6.56417e-14
8.64165e-13
2.11201e-12
2.15137e-12
2.5107e-12
3.49453e-12
4.60497e-12
4.22713e-12
5.81292e-12
8.7482e-12
1.31301e-11
2.07364e-11
3.65217e-11
6.31807e-11
1.09964e-10
1.92562e-10
3.37838e-10
5.91606e-10
1.03232e-09
1.78903e-09
3.08874e-09
5.30144e-09
9.05496e-09
1.53808e-08
2.59874e-08
4.36729e-08
7.29933e-08
1.21338e-07
2.00588e-07
3.29761e-07
5.39077e-07
8.76272e-07
1.41625e-06
2.27581e-06
3.63578e-06
5.77437e-06
9.1166e-06
1.43073e-05
2.23181e-05
3.46021e-05
5.33176e-05
8.16462e-05
0.000124243
0.000187869
0.000282263
0.000421353
0.000624887
0.00092065
0.0013474
0.00195876
0.00282825
0.00405583
0.00577614
0.00816891
0.0114718
0.0159959
0.0221446
0.0304357
0.0415268
0.0562438
0.0756132
0.100896
0.133622
0.175628
0.229086
0.296539
0.380914
0.485542
0.614154
0.770866
0.960145
1.18676
1.45571
1.77212
2.14117
2.56795
3.05732
3.61383
4.24152
4.94387
5.72369
6.58298
7.52293
8.54389
9.64532
10.8259
12.0834
13.415
14.8172
16.286
17.8171
19.4056
21.0467
22.7355
24.467
26.2364
28.0391
29.8708
31.7275
33.6055
35.5013
37.4122
39.3354
41.2687
43.2103
45.1584
47.1119
49.0695
51.0304
52.994
54.9596
56.927
58.8959
60.8659
62.8371
64.8094
66.7827
68.7571
70.7326
72.7093
74.6873
76.6667
78.6476
80.6302
82.6145
84.6007
86.589
88.5795
90.5724
92.5677
94.5657
96.5665
98.5702
100.577
102.587
104.6
106.617
108.638
110.662
112.69
114.722
116.759
118.799
120.845
122.894
124.948
127.007
129.071
131.139
133.213
135.291
137.375
139.464
141.558
143.657
145.762
147.872
149.987
152.108
154.235
156.367
158.504
160.648
162.797
164.951
167.112
169.279
171.452
173.631
175.816
178.008
180.206
182.412
184.624
186.843
189.07
191.304
193.546
195.795
198.053
200.318
202.593
204.875
207.167
209.468
211.777
214.097
216.426
218.765
221.113
223.473
225.842
228.221
230.61
232.939
235.273
237.613
239.958
242.31
244.669
247.034
249.407
251.786
254.172
256.564
258.962
261.367
263.778
266.196
268.619
271.049
273.485
275.927
278.376
280.83
283.29
285.756
288.229
290.706
293.19
295.68
298.175
300.676
303.182
305.694
308.211
310.734
313.262
315.795
318.332
320.876
323.422
325.975
328.528
331.089
333.653
336.223
338.799
341.378
343.96
346.544
349.133
351.728
354.324
356.923
359.526
362.131
364.739
367.348
369.96
372.574
375.19
377.806
380.424
383.042
385.661
388.279
390.897
393.514
396.13
398.743
401.355
403.964
406.57
409.172
411.77
414.363
416.95
419.531
422.105
424.671
427.229
429.777
432.314
434.84
437.353
439.852
442.336
444.803
447.252
449.681
452.09
454.476
456.837
459.172
461.479
463.756
466.002
468.216
470.398
472.383
474.712
477.919
)
;

boundaryField
{
    sideLeft
    {
        type            symmetryPlane;
        value           uniform 0;
    }
    sideRight
    {
        type            calculated;
        value           uniform 1833.07;
    }
    topbottom
    {
        type            empty;
        value           nonuniform 0();
    }
    frontback
    {
        type            empty;
        value           nonuniform 0();
    }
}


// ************************************************************************* //
