/*--------------------------------*- C++ -*----------------------------------*\
| =========                 |                                                 |
| \\      /  F ield         | OpenFOAM: The Open Source CFD Toolbox           |
|  \\    /   O peration     | Version:  2.4.0                                 |
|   \\  /    A nd           | Web:      www.OpenFOAM.org                      |
|    \\/     M anipulation  |                                                 |
\*---------------------------------------------------------------------------*/
FoamFile
{
    version     2.0;
    format      ascii;
    class       volScalarField;
    location    "0.07";
    object      pMean;
}
// * * * * * * * * * * * * * * * * * * * * * * * * * * * * * * * * * * * * * //

dimensions      [1 -1 -2 0 0 0 0];

internalField   nonuniform List<scalar> 
1000
(
5e+06
5e+06
5e+06
5e+06
5e+06
5e+06
5e+06
5e+06
5e+06
5e+06
5e+06
5e+06
5e+06
5e+06
5e+06
5e+06
5e+06
5e+06
5e+06
5e+06
5e+06
5e+06
5e+06
5e+06
5e+06
5e+06
5e+06
5e+06
5e+06
5e+06
5e+06
5e+06
5e+06
5e+06
5e+06
5e+06
5e+06
5e+06
5e+06
5e+06
5e+06
5e+06
5e+06
5e+06
5e+06
5e+06
5e+06
5e+06
5e+06
5e+06
5e+06
5e+06
5e+06
5e+06
5e+06
5e+06
5e+06
5e+06
5e+06
5e+06
5e+06
5e+06
5e+06
5e+06
5e+06
5e+06
5e+06
5e+06
5e+06
5e+06
5e+06
5e+06
5e+06
5e+06
5e+06
5e+06
5e+06
5e+06
5e+06
5e+06
5e+06
5e+06
5e+06
5e+06
5e+06
5e+06
5e+06
5e+06
5e+06
5e+06
5e+06
5e+06
5e+06
5e+06
5e+06
5e+06
5e+06
5e+06
5e+06
5e+06
5e+06
5e+06
5e+06
5e+06
5e+06
5e+06
5e+06
5e+06
5e+06
5e+06
5e+06
5e+06
5e+06
5e+06
5e+06
5e+06
5e+06
5e+06
5e+06
5e+06
5e+06
5e+06
5e+06
5e+06
5e+06
5e+06
5e+06
5e+06
5e+06
5e+06
5e+06
5e+06
5e+06
5e+06
5e+06
5e+06
5e+06
5e+06
5e+06
5e+06
5e+06
5e+06
5e+06
5e+06
5e+06
5e+06
5e+06
5e+06
5e+06
5e+06
5e+06
5e+06
5e+06
5e+06
5e+06
5e+06
5e+06
5e+06
5e+06
5e+06
5e+06
5e+06
5e+06
5e+06
5e+06
5e+06
5e+06
5e+06
5e+06
5e+06
5e+06
5e+06
5e+06
5e+06
5e+06
5e+06
5e+06
5e+06
5e+06
5e+06
5e+06
5e+06
5e+06
5e+06
5e+06
5e+06
5e+06
5e+06
5e+06
5e+06
5e+06
5e+06
5e+06
5e+06
5e+06
5e+06
5e+06
5e+06
5e+06
5e+06
5e+06
5e+06
5e+06
5e+06
5e+06
5e+06
5e+06
5e+06
5e+06
5e+06
5e+06
5e+06
5e+06
5e+06
5e+06
5e+06
5e+06
5e+06
5e+06
5e+06
5e+06
5e+06
5e+06
5e+06
5e+06
5e+06
5e+06
5e+06
5e+06
5e+06
5e+06
5e+06
5e+06
5e+06
5e+06
5e+06
5e+06
5e+06
5e+06
5e+06
5e+06
5e+06
5e+06
5e+06
5e+06
5e+06
5e+06
5e+06
5e+06
5e+06
5e+06
5e+06
5e+06
5e+06
5e+06
5e+06
5e+06
5e+06
5e+06
5e+06
5e+06
5e+06
5e+06
5e+06
5e+06
5e+06
5e+06
5e+06
5e+06
5e+06
5e+06
5e+06
5e+06
5e+06
5e+06
5e+06
5e+06
5e+06
5e+06
5e+06
5e+06
5e+06
5e+06
5e+06
5e+06
5e+06
5e+06
5e+06
5e+06
5e+06
5e+06
5e+06
5e+06
5e+06
5e+06
5e+06
5e+06
5e+06
5e+06
5e+06
5e+06
5e+06
5e+06
5e+06
5e+06
5e+06
5e+06
5e+06
5e+06
5e+06
5e+06
5e+06
5e+06
5e+06
5e+06
5e+06
5e+06
5e+06
5e+06
5e+06
5e+06
5e+06
5e+06
5e+06
5e+06
5e+06
5e+06
5e+06
5e+06
5e+06
5e+06
5e+06
5e+06
5e+06
5e+06
5e+06
5e+06
5e+06
5e+06
5e+06
5e+06
5e+06
5e+06
5e+06
5e+06
5e+06
5e+06
5e+06
5e+06
5e+06
5e+06
5e+06
5e+06
5e+06
5e+06
5e+06
5e+06
5e+06
5e+06
5e+06
5e+06
5e+06
5e+06
5e+06
5e+06
5e+06
5e+06
5e+06
5e+06
5e+06
5e+06
5e+06
5e+06
5e+06
5e+06
5e+06
5e+06
5e+06
5e+06
5e+06
5e+06
5e+06
5e+06
5e+06
5e+06
5e+06
5e+06
5e+06
5e+06
5e+06
5e+06
5e+06
5e+06
5e+06
5e+06
5e+06
5e+06
5e+06
5e+06
5e+06
5e+06
5e+06
5e+06
5e+06
5e+06
5e+06
5e+06
5e+06
5e+06
5e+06
5e+06
5e+06
5e+06
5e+06
5e+06
5e+06
5e+06
5e+06
5e+06
5e+06
5e+06
5e+06
5e+06
5e+06
5e+06
5e+06
5e+06
5e+06
5e+06
5e+06
5e+06
5e+06
5e+06
5e+06
5e+06
5e+06
5e+06
5e+06
5e+06
5e+06
5e+06
5e+06
5e+06
5e+06
5e+06
5e+06
5e+06
5e+06
5e+06
5e+06
5e+06
5e+06
5e+06
5e+06
5e+06
5e+06
5e+06
5e+06
5e+06
5e+06
5e+06
5e+06
5e+06
5e+06
5e+06
5e+06
5e+06
5e+06
5e+06
5e+06
5e+06
5e+06
5e+06
5e+06
5e+06
5e+06
5e+06
5e+06
5e+06
5e+06
5e+06
5e+06
5e+06
5e+06
5e+06
5e+06
5e+06
5e+06
5e+06
5e+06
5e+06
5e+06
5e+06
5e+06
5e+06
5e+06
5e+06
5e+06
5e+06
5e+06
5e+06
5e+06
5e+06
5e+06
5e+06
5e+06
5e+06
5e+06
5e+06
5e+06
5e+06
5e+06
5e+06
5e+06
5e+06
5e+06
5e+06
5e+06
5e+06
5e+06
5e+06
5e+06
5e+06
5e+06
5e+06
5e+06
5e+06
5e+06
5e+06
5e+06
5e+06
5e+06
5e+06
5e+06
5e+06
5e+06
5e+06
5e+06
5e+06
5e+06
5e+06
5e+06
5e+06
5e+06
5e+06
5e+06
5e+06
5e+06
5e+06
5e+06
5e+06
5e+06
5e+06
5e+06
5e+06
5e+06
5e+06
5e+06
5e+06
5e+06
5e+06
5e+06
5e+06
5e+06
5e+06
5e+06
5e+06
5e+06
5e+06
5e+06
5e+06
5e+06
5e+06
5e+06
5e+06
5e+06
5e+06
5e+06
5e+06
5e+06
5e+06
5e+06
5e+06
5e+06
5e+06
5e+06
5e+06
5e+06
5e+06
5e+06
5e+06
5e+06
5e+06
5e+06
5e+06
5e+06
5e+06
5e+06
5e+06
5e+06
5e+06
5e+06
5e+06
5e+06
5e+06
5e+06
5e+06
5e+06
5e+06
5e+06
5e+06
5e+06
5e+06
5e+06
5e+06
5e+06
5e+06
5e+06
5e+06
5e+06
5e+06
5e+06
5e+06
5e+06
5e+06
5e+06
5e+06
5e+06
5e+06
5e+06
5e+06
5e+06
5e+06
5e+06
5e+06
5e+06
5e+06
5e+06
5e+06
5e+06
5e+06
5e+06
5e+06
5e+06
5e+06
5e+06
5e+06
5e+06
5e+06
5e+06
5e+06
5e+06
5e+06
5e+06
5e+06
5e+06
5e+06
5e+06
5e+06
5e+06
5e+06
5e+06
5e+06
5e+06
5e+06
5e+06
5e+06
5e+06
5e+06
5e+06
5e+06
5e+06
5e+06
5e+06
5e+06
5e+06
5e+06
5e+06
5e+06
5e+06
5e+06
5e+06
5e+06
5e+06
5e+06
5e+06
5e+06
5e+06
5e+06
5e+06
5e+06
5e+06
5e+06
5e+06
5e+06
5e+06
5e+06
5e+06
5e+06
5e+06
5e+06
5e+06
5e+06
5e+06
5e+06
5e+06
5e+06
5e+06
5e+06
5e+06
5e+06
5e+06
5e+06
5e+06
5e+06
5e+06
5e+06
5e+06
5e+06
5e+06
5e+06
5e+06
5e+06
5e+06
5e+06
5e+06
5e+06
5e+06
5e+06
5e+06
5e+06
5e+06
5e+06
5e+06
5e+06
5e+06
5e+06
5e+06
5e+06
5e+06
5e+06
5e+06
5e+06
5e+06
5e+06
5e+06
5e+06
5e+06
5e+06
5e+06
5e+06
5e+06
5e+06
5e+06
5e+06
5e+06
5e+06
5e+06
5e+06
5e+06
5e+06
5e+06
5e+06
5e+06
5e+06
5e+06
4.99999e+06
4.99999e+06
4.99999e+06
4.99999e+06
4.99998e+06
4.99998e+06
4.99997e+06
4.99996e+06
4.99995e+06
4.99993e+06
4.99991e+06
4.99988e+06
4.99985e+06
4.99981e+06
4.99977e+06
4.99971e+06
4.99964e+06
4.99956e+06
4.99947e+06
4.99936e+06
4.99923e+06
4.99908e+06
4.9989e+06
4.99871e+06
4.99848e+06
4.99823e+06
4.99794e+06
4.99762e+06
4.99727e+06
4.99688e+06
4.99645e+06
4.99598e+06
4.99547e+06
4.99492e+06
4.99432e+06
4.99368e+06
4.99299e+06
4.99225e+06
4.99146e+06
4.99063e+06
4.98974e+06
4.98881e+06
4.98783e+06
4.98679e+06
4.9857e+06
4.98457e+06
4.98338e+06
4.98214e+06
4.98084e+06
4.9795e+06
4.97811e+06
4.97666e+06
4.97516e+06
4.97361e+06
4.97201e+06
4.97035e+06
4.96864e+06
4.96688e+06
4.96507e+06
4.96321e+06
4.96129e+06
4.95933e+06
4.95731e+06
4.95523e+06
4.95311e+06
4.95093e+06
4.9487e+06
4.94642e+06
4.94408e+06
4.94169e+06
4.93925e+06
4.93676e+06
4.93421e+06
4.93161e+06
4.92896e+06
4.92625e+06
4.92349e+06
4.92068e+06
4.91781e+06
4.91489e+06
4.91192e+06
4.90889e+06
4.90581e+06
4.90267e+06
4.89948e+06
4.89624e+06
4.89294e+06
4.88958e+06
4.88617e+06
4.88271e+06
4.87919e+06
4.87561e+06
4.87198e+06
4.86829e+06
4.86455e+06
4.86075e+06
4.85689e+06
4.85298e+06
4.84901e+06
4.84499e+06
4.8409e+06
4.83677e+06
4.83257e+06
4.82831e+06
4.824e+06
4.81963e+06
4.8152e+06
4.81072e+06
4.80617e+06
4.80157e+06
4.79691e+06
4.79219e+06
4.78741e+06
4.78257e+06
4.77767e+06
4.77271e+06
4.76769e+06
4.7626e+06
4.75746e+06
4.75226e+06
4.747e+06
4.74167e+06
4.73628e+06
4.73083e+06
4.72532e+06
4.71975e+06
4.71411e+06
4.70841e+06
4.70264e+06
4.69681e+06
4.69092e+06
4.68496e+06
4.67894e+06
4.67286e+06
4.66671e+06
4.6605e+06
4.65422e+06
4.64789e+06
4.64149e+06
4.63503e+06
4.6285e+06
4.62191e+06
4.61525e+06
4.60852e+06
4.60173e+06
4.59487e+06
4.58795e+06
4.58096e+06
4.5739e+06
4.56678e+06
4.55958e+06
4.55233e+06
4.545e+06
4.53761e+06
4.53015e+06
4.52262e+06
4.51502e+06
4.50735e+06
4.49961e+06
4.49181e+06
4.48393e+06
4.47599e+06
4.46798e+06
4.45989e+06
4.45174e+06
4.44351e+06
4.43522e+06
4.42685e+06
4.41841e+06
4.4099e+06
4.40132e+06
4.39267e+06
4.38394e+06
4.37515e+06
4.36628e+06
4.35734e+06
4.34832e+06
4.33923e+06
4.33007e+06
4.32084e+06
4.31153e+06
4.30215e+06
4.29269e+06
4.28316e+06
4.27355e+06
4.26387e+06
4.25412e+06
4.24429e+06
4.23438e+06
4.2244e+06
4.21435e+06
4.20422e+06
4.19401e+06
4.18373e+06
4.17337e+06
4.16293e+06
4.15242e+06
4.14184e+06
4.13117e+06
4.12043e+06
4.10961e+06
4.09872e+06
4.08775e+06
4.0767e+06
4.06558e+06
4.05438e+06
4.04311e+06
4.03175e+06
4.02032e+06
4.00882e+06
3.99724e+06
3.98558e+06
3.97385e+06
3.96204e+06
3.95016e+06
3.9382e+06
3.92617e+06
3.91406e+06
3.90188e+06
3.88963e+06
3.8773e+06
3.8649e+06
3.85244e+06
3.8399e+06
3.82729e+06
3.81462e+06
3.80188e+06
3.78908e+06
3.77622e+06
3.76331e+06
3.75036e+06
3.73739e+06
3.7243e+06
3.71127e+06
)
;

boundaryField
{
    sideLeft
    {
        type            symmetryPlane;
    }
    sideRight
    {
        type            calculated;
        value           uniform 3.70429e+06;
    }
    topbottom
    {
        type            empty;
    }
    frontback
    {
        type            empty;
    }
}


// ************************************************************************* //
