/*--------------------------------*- C++ -*----------------------------------*\
| =========                 |                                                 |
| \\      /  F ield         | OpenFOAM: The Open Source CFD Toolbox           |
|  \\    /   O peration     | Version:  2.4.0                                 |
|   \\  /    A nd           | Web:      www.OpenFOAM.org                      |
|    \\/     M anipulation  |                                                 |
\*---------------------------------------------------------------------------*/
FoamFile
{
    version     2.0;
    format      ascii;
    class       volScalarField;
    location    "0.07";
    object      T.air;
}
// * * * * * * * * * * * * * * * * * * * * * * * * * * * * * * * * * * * * * //

dimensions      [0 0 0 1 0 0 0];

internalField   nonuniform List<scalar> 
1000
(
300
300
300
300
300
300
300
300
300
300
300
300
300
300
300
300
300
300
300
300
300
300
300
300
300
300
300
300
300
300
300
300
300
300
300
300
300
300
300
300
300
300
300
300
300
300
300
300
300
300
300
300
300
300
300
300
300
300
300
300
300
300
300
300
300
300
300
300
300
300
300
300
300
300
300
300
300
300
300
300
300
300
300
300
300
300
300
300
300
300
300
300
300
300
300
300
300
300
300
300
300
300
300
300
300
300
300
300
300
300
300
300
300
300
300
300
300
300
300
300
300
300
300
300
300
300
300
300
300
300
300
300
300
300
300
300
300
300
300
300
300
300
300
300
300
300
300
300
300
300
300
300
300
300
300
300
300
300
300
300
300
300
300
300
300
300
300
300
300
300
300
300
300
300
300
300
300
300
300
300
300
300
300
300
300
300
300
300
300
300
300
300
300
300
300
300
300
300
300
300
300
300
300
300
300
300
300
300
300
300
300
300
300
300
300
300
300
300
300
300
300
300
300
300
300
300
300
300
300
300
300
300
300
300
300
300
300
300
300
300
300
300
300
300
300
300
300
300
300
300
300
300
300
300
300
300
300
300
300
300
300
300
300
300
300
300
300
300
300
300
300
300
300
300
300
300
300
300
300
300
300
300
300
300
300
300
300
300
300
300
300
300
300
300
300
300
300
300
300
300
300
300
300
300
300
300
300
300
300
300
300
300
300
300
300
300
300
300
300
300
300
300
300
300
300
300
300
300
300
300
300
300
300
300
300
300
300
300
300
300
300
300
300
300
300
300
300
300
300
300
300
300
300
300
300
300
300
300
300
300
300
300
300
300
300
300
300
300
300
300
300
300
300
300
300
300
300
300
300
300
300
300
300
300
300
300
300
300
300
300
300
300
300
300
300
300
300
300
300
300
300
300
300
300
300
300
300
300
300
300
300
300
300
300
300
300
300
300
300
300
300
300
300
300
300
300
300
300
300
300
300
300
300
300
300
300
300
300
300
300
300
300
300
300
300
300
300
300
300
300
300
300
300
300
300
300
300
300
300
300
300
300
300
300
300
300
300
300
300
300
300
300
300
300
300
300
300
300
300
300
300
300
300
300
300
300
300
300
300
300
300
300
300
300
300
300
300
300
300
300
300
300
300
300
300
300
300
300
300
300
300
300
300
300
300
300
300
300
300
300
300
300
300
300
300
300
300
300
300
300
300
300
300
300
300
300
300
300
300
300
300
300
300
300
300
300
300
300
300
300
300
300
300
300
300
300
300
300
300
300
300
300
300
300
300
300
300
300
300
300
300
300
300
300
300
300
300
300
300
300
300
300
300
300
300
300
300
300
300
300
300
300
300
300
300
300
300
300
300
300
300
300
300
300
300
300
300
300
300
300
300
300
300
300
300
300
300
300
300
300
300
300
300
300
300
300
300
300
300
300
300
300
300
300
300
300
300
300
300
300
300
300
300
300
300
300
300
300
300
300
300
300
300
300
300
300
300
300
300
300
300
300
300
300
300
300
300
300
300
300
300
300
300
300
300
300
300
300
300
300
300
300
300
300
300
300
300
300
300
300
300
300
300
300
300
300
300
300
300
300
300
300
300
300
300
300
300
300
300
300
300
300
300
300
300
300
300
300
300
300
300
300
300
300
300
300
300
300
300
300
300
300
300
300
300
300
300
300
300
300
300
300
300
300
300
300
300
300
300
300
300
300
300
300
300
300
300
300
300
300
300
300
299.999
299.999
299.999
299.998
299.998
299.997
299.996
299.995
299.993
299.991
299.988
299.985
299.981
299.976
299.97
299.963
299.955
299.945
299.933
299.919
299.903
299.885
299.865
299.842
299.816
299.788
299.757
299.723
299.686
299.646
299.603
299.558
299.51
299.459
299.406
299.351
299.293
299.234
299.172
299.109
299.045
298.979
298.912
298.844
298.774
298.704
298.634
298.562
298.49
298.417
298.344
298.271
298.197
298.123
298.048
297.973
297.898
297.822
297.746
297.67
297.594
297.517
297.44
297.363
297.286
297.208
297.13
297.051
296.973
296.894
296.815
296.735
296.655
296.575
296.495
296.414
296.333
296.251
296.169
296.087
296.005
295.922
295.839
295.756
295.672
295.588
295.503
295.418
295.333
295.247
295.161
295.075
294.988
294.901
294.813
294.725
294.637
294.548
294.459
294.369
294.279
294.189
294.098
294.007
293.915
293.823
293.731
293.638
293.545
293.451
293.357
293.262
293.167
293.072
292.976
292.88
292.783
292.686
292.588
292.491
292.391
292.294
292.191
292.096
291.987
291.897
291.782
291.696
291.575
291.491
291.366
291.285
291.155
291.075
290.942
290.864
290.726
290.65
290.508
290.367
290.225
290.083
289.942
289.8
289.658
289.516
289.373
289.23
289.087
288.944
288.8
288.655
288.51
288.365
288.219
288.074
287.927
287.781
287.633
287.485
287.336
287.185
287.034
286.88
286.726
286.569
286.413
286.252
286.094
285.927
285.771
285.593
285.444
285.25
285.115
284.897
284.778
284.544
284.426
284.189
284.068
283.825
283.703
283.456
283.331
283.079
282.952
282.695
282.566
282.305
282.173
281.907
281.772
281.502
281.365
281.09
280.951
280.67
280.529
280.244
280.1
279.81
279.664
279.37
279.221
278.922
278.771
278.467
278.314
278.006
277.85
277.537
277.38
277.062
276.902
276.581
276.419
276.094
275.93
275.601
275.435
275.102
274.935
274.599
274.43
274.091
273.921
273.58
273.409
273.066
272.894
272.549
272.377
272.032
271.858
271.423
271.42
271.395
)
;

boundaryField
{
    sideLeft
    {
        type            symmetryPlane;
    }
    sideRight
    {
        type            zeroGradient;
    }
    topbottom
    {
        type            empty;
    }
    frontback
    {
        type            empty;
    }
}


// ************************************************************************* //
