/*--------------------------------*- C++ -*----------------------------------*\
| =========                 |                                                 |
| \\      /  F ield         | OpenFOAM: The Open Source CFD Toolbox           |
|  \\    /   O peration     | Version:  2.4.0                                 |
|   \\  /    A nd           | Web:      www.OpenFOAM.org                      |
|    \\/     M anipulation  |                                                 |
\*---------------------------------------------------------------------------*/
FoamFile
{
    version     2.0;
    format      ascii;
    class       volScalarField;
    location    "0.07";
    object      T.water;
}
// * * * * * * * * * * * * * * * * * * * * * * * * * * * * * * * * * * * * * //

dimensions      [0 0 0 1 0 0 0];

internalField   nonuniform List<scalar> 
1000
(
300
300
300
300
300
300
300
300
300
300
300
300
300
300
300
300
300
300
300
300
300
300
300
300
300
300
300
300
300
300
300
300
300
300
300
300
300
300
300
300
300
300
300
300
300
300
300
300
300
300
300
300
300
300
300
300
300
300
300
300
300
300
300
300
300
300
300
300
300
300
300
300
300
300
300
300
300
300
300
300
300
300
300
300
300
300
300
300
300
300
300
300
300
300
300
300
300
300
300
300
300
300
300
300
300
300
300
300
300
300
300
300
300
300
300
300
300
300
300
300
300
300
300
300
300
300
300
300
300
300
300
300
300
300
300
300
300
300
300
300
300
300
300
300
300
300
300
300
300
300
300
300
300
300
300
300
300
300
300
300
300
300
300
300
300
300
300
300
300
300
300
300
300
300
300
300
300
300
300
300
300
300
300
300
300
300
300
300
300
300
300
300
300
300
300
300
300
300
300
300
300
300
300
300
300
300
300
300
300
300
300
300
300
300
300
300
300
300
300
300
300
300
300
300
300
300
300
300
300
300
300
300
300
300
300
300
300
300
300
300
300
300
300
300
300
300
300
300
300
300
300
300
300
300
300
300
300
300
300
300
300
300
300
300
300
300
300
300
300
300
300
300
300
300
300
300
300
300
300
300
300
300
300
300
300
300
300
300
300
300
300
300
300
300
300
300
300
300
300
300
300
300
300
300
300
300
300
300
300
300
300
300
300
300
300
300
300
300
300
300
300
300
300
300
300
300
300
300
300
300
300
300
300
300
300
300
300
300
300
300
300
300
300
300
300
300
300
300
300
300
300
300
300
300
300
300
300
300
300
300
300
300
300
300
300
300
300
300
300
300
300
300
300
300
300
300
300
300
300
300
300
300
300
300
300
300
300
300
300
300
300
300
300
300
300
300
300
300
300
300
300
300
300
300
300
300
300
300
300
300
300
300
300
300
300
300
300
300
300
300
300
300
300
300
300
300
300
300
300
300
300
300
300
300
300
300
300
300
300
300
300
300
300
300
300
300
300
300
300
300
300
300
300
300
300
300
300
300
300
300
300
300
300
300
300
300
300
300
300
300
300
300
300
300
300
300
300
300
300
300
300
300
300
300
300
300
300
300
300
300
300
300
300
300
300
300
300
300
300
300
300
300
300
300
300
300
300
300
300
300
300
300
300
300
300
300
300
300
300
300
300
300
300
300
300
300
300
300
300
300
300
300
300
300
300
300
300
300
300
300
300
300
300
300
300
300
300
300
300
300
300
300
300
300
300
300
300
300
300
300
300
300
300
300
300
300
300
300
300
300
300
300
300
300
300
300
300
300
300
300
300
300
300
300
300
300
300
300
300
300
300
300
300
300
300
300
300
300
300
300
300
300
300
300
300
300
300
300
300
300
300
300
300
300
300
300
300
300
300
300
300
300
300
300
300
300
300
300
300
300
300
300
300
300
300
300
300
300
300
300
300
300
300
300
300
300
300
300
300
300
300
300
300
300
300
300
300
300
300
300
300
300
300
300
300
300
300
300
300
300
300
300
300
300
300
300
300
300
300
300
300
300
300
300
300
300
300
300
300
300
300
300
300
300
300
300
300
300
300
300
300
300
300
300
300
300
300
300
300
300
300
300
300
300
300
300
300
300
300
300
300
300
300
300
300
300
300
300
300
300
300
300
300
300
300
300
300
300
300
300
300
300
300
300
300
300
300
300
300
300
300
300
300
300
300
300
300
300
300
300
300
299.999
299.999
299.999
299.999
299.998
299.998
299.997
299.996
299.994
299.993
299.99
299.988
299.984
299.98
299.975
299.968
299.961
299.952
299.941
299.929
299.915
299.899
299.88
299.859
299.835
299.809
299.779
299.747
299.713
299.675
299.634
299.591
299.545
299.496
299.445
299.391
299.335
299.277
299.217
299.156
299.092
299.028
298.962
298.894
298.826
298.757
298.687
298.616
298.544
298.472
298.4
298.327
298.253
298.18
298.105
298.031
297.956
297.881
297.806
297.73
297.654
297.577
297.501
297.424
297.347
297.269
297.192
297.114
297.036
296.957
296.878
296.799
296.72
296.64
296.56
296.479
296.399
296.318
296.236
296.155
296.073
295.99
295.908
295.825
295.741
295.658
295.573
295.489
295.404
295.319
295.233
295.147
295.061
294.974
294.887
294.8
294.712
294.623
294.535
294.446
294.356
294.266
294.176
294.085
293.994
293.902
293.811
293.718
293.625
293.532
293.439
293.345
293.25
293.155
293.06
292.964
292.868
292.771
292.674
292.576
292.479
292.379
292.282
292.179
292.085
291.976
291.886
291.771
291.684
291.564
291.48
291.355
291.274
291.144
291.064
290.931
290.853
290.715
290.639
290.498
290.356
290.215
290.073
289.932
289.79
289.648
289.506
289.363
289.22
289.077
288.934
288.79
288.646
288.501
288.355
288.21
288.064
287.918
287.771
287.624
287.476
287.326
287.176
287.024
286.871
286.717
286.56
286.404
286.243
286.085
285.918
285.762
285.585
285.436
285.241
285.106
284.889
284.769
284.535
284.417
284.181
284.06
283.817
283.694
283.448
283.323
283.071
282.944
282.687
282.558
282.297
282.165
281.899
281.765
281.494
281.357
281.082
280.943
280.663
280.522
280.237
280.093
279.803
279.657
279.362
279.214
278.915
278.764
278.46
278.307
277.999
277.843
277.53
277.373
277.055
276.896
276.574
276.412
276.087
275.923
275.594
275.428
275.096
274.928
274.592
274.424
274.085
273.915
273.574
273.403
273.06
272.888
272.544
272.371
272.026
271.853
271.418
271.417
271.395
)
;

boundaryField
{
    sideLeft
    {
        type            symmetryPlane;
    }
    sideRight
    {
        type            zeroGradient;
    }
    topbottom
    {
        type            empty;
    }
    frontback
    {
        type            empty;
    }
}


// ************************************************************************* //
