/*--------------------------------*- C++ -*----------------------------------*\
| =========                 |                                                 |
| \\      /  F ield         | OpenFOAM: The Open Source CFD Toolbox           |
|  \\    /   O peration     | Version:  2.4.0                                 |
|   \\  /    A nd           | Web:      www.OpenFOAM.org                      |
|    \\/     M anipulation  |                                                 |
\*---------------------------------------------------------------------------*/
FoamFile
{
    version     2.0;
    format      ascii;
    class       volVectorField;
    location    "0.07";
    object      U.airMean;
}
// * * * * * * * * * * * * * * * * * * * * * * * * * * * * * * * * * * * * * //

dimensions      [0 1 -1 0 0 0 0];

internalField   nonuniform List<vector> 
1000
(
(-8.14075e-14 0 0)
(-2.72443e-14 0 0)
(-6.00814e-14 0 0)
(-1.92355e-14 0 0)
(-6.60599e-14 0 0)
(2.40668e-14 0 0)
(-3.57503e-14 0 0)
(-6.39547e-16 0 0)
(-1.38251e-14 0 0)
(-6.46599e-15 0 0)
(-2.02099e-14 0 0)
(-5.50364e-14 0 0)
(-2.62921e-15 0 0)
(-6.56844e-14 0 0)
(2.3732e-14 0 0)
(-2.87058e-14 0 0)
(3.40654e-14 0 0)
(-1.10438e-14 0 0)
(4.27847e-14 0 0)
(-3.85619e-14 0 0)
(3.73641e-14 0 0)
(-3.9577e-14 0 0)
(-2.40672e-14 0 0)
(-4.67638e-14 0 0)
(-7.48709e-14 0 0)
(-6.63951e-14 0 0)
(-8.04334e-14 0 0)
(-6.96841e-14 0 0)
(-1.27248e-13 0 0)
(-3.25025e-14 0 0)
(-9.71006e-14 0 0)
(-7.87078e-14 0 0)
(-6.20711e-14 0 0)
(-5.89547e-14 0 0)
(-1.45765e-14 0 0)
(-1.274e-13 0 0)
(2.05851e-14 0 0)
(-8.61074e-14 0 0)
(-1.23858e-15 0 0)
(-7.13687e-14 0 0)
(7.66346e-15 0 0)
(-6.41618e-14 0 0)
(-3.17613e-14 0 0)
(-5.4123e-14 0 0)
(-5.40021e-15 0 0)
(-1.80376e-14 0 0)
(-2.38133e-14 0 0)
(-2.6483e-14 0 0)
(-4.11404e-14 0 0)
(-3.16091e-14 0 0)
(-8.87567e-14 0 0)
(-1.88092e-14 0 0)
(-6.34412e-14 0 0)
(-3.51224e-15 0 0)
(-4.04501e-14 0 0)
(-1.1186e-14 0 0)
(3.51202e-15 0 0)
(-9.28777e-15 0 0)
(-6.22229e-15 0 0)
(2.83709e-14 0 0)
(-1.1399e-14 0 0)
(4.10286e-14 0 0)
(2.04738e-14 0 0)
(2.68789e-14 0 0)
(3.73745e-14 0 0)
(4.26732e-14 0 0)
(6.14822e-14 0 0)
(3.68162e-14 0 0)
(8.38451e-15 0 0)
(2.64117e-14 0 0)
(-4.28861e-14 0 0)
(-2.762e-14 0 0)
(-7.78651e-14 0 0)
(-3.14366e-14 0 0)
(-6.10357e-14 0 0)
(-9.1538e-14 0 0)
(-4.62058e-14 0 0)
(-1.0178e-13 0 0)
(-8.02609e-14 0 0)
(-7.55408e-14 0 0)
(-5.79601e-14 0 0)
(-5.44581e-14 0 0)
(-6.67909e-14 0 0)
(-4.88448e-14 0 0)
(-9.17919e-14 0 0)
(-6.51467e-14 0 0)
(-1.13098e-13 0 0)
(-6.64663e-14 0 0)
(-1.16194e-13 0 0)
(-1.34912e-13 0 0)
(-9.37512e-14 0 0)
(-1.04673e-13 0 0)
(-1.15189e-13 0 0)
(-6.77148e-14 0 0)
(-8.38237e-14 0 0)
(-3.59537e-14 0 0)
(-1.1121e-13 0 0)
(-3.14874e-14 0 0)
(-9.6989e-14 0 0)
(-6.96536e-14 0 0)
(-9.32637e-14 0 0)
(-9.63598e-14 0 0)
(-1.10703e-13 0 0)
(-1.01252e-13 0 0)
(-1.08155e-13 0 0)
(-1.34475e-13 0 0)
(-9.63599e-14 0 0)
(-1.39114e-13 0 0)
(-1.6513e-13 0 0)
(-1.2601e-13 0 0)
(-1.70033e-13 0 0)
(-1.36323e-13 0 0)
(-1.72002e-13 0 0)
(-1.51904e-13 0 0)
(-1.81777e-13 0 0)
(-1.62674e-13 0 0)
(-1.41601e-13 0 0)
(-1.08043e-13 0 0)
(-1.105e-13 0 0)
(-1.06267e-13 0 0)
(-9.12438e-14 0 0)
(-7.25668e-14 0 0)
(-4.88447e-14 0 0)
(-6.52684e-14 0 0)
(-3.86332e-14 0 0)
(-5.54832e-14 0 0)
(-3.70803e-14 0 0)
(-8.19864e-14 0 0)
(-1.00696e-14 0 0)
(-1.17452e-13 0 0)
(-2.13471e-14 0 0)
(-1.32506e-13 0 0)
(-7.68199e-14 0 0)
(-9.55882e-14 0 0)
(-4.92407e-14 0 0)
(-9.54968e-14 0 0)
(-5.97364e-14 0 0)
(-5.9107e-14 0 0)
(-3.08681e-14 0 0)
(-3.89986e-14 0 0)
(-6.29846e-14 0 0)
(-4.65812e-14 0 0)
(-1.09088e-13 0 0)
(-6.10358e-14 0 0)
(-1.13758e-13 0 0)
(-8.49709e-14 0 0)
(-9.65018e-14 0 0)
(-1.08145e-13 0 0)
(-1.04836e-13 0 0)
(-1.28913e-13 0 0)
(-1.23391e-13 0 0)
(-1.45803e-13 0 0)
(-1.28821e-13 0 0)
(-1.45235e-13 0 0)
(-1.22051e-13 0 0)
(-1.33582e-13 0 0)
(-1.25208e-13 0 0)
(-1.29583e-13 0 0)
(-1.48097e-13 0 0)
(-1.4223e-13 0 0)
(-1.77605e-13 0 0)
(-9.62381e-14 0 0)
(-1.39114e-13 0 0)
(-7.4262e-14 0 0)
(-1.02176e-13 0 0)
(-4.45206e-14 0 0)
(-8.74069e-14 0 0)
(-3.83796e-14 0 0)
(-8.45647e-14 0 0)
(-7.75912e-14 0 0)
(-7.2445e-14 0 0)
(-6.88516e-14 0 0)
(-9.50198e-14 0 0)
(-7.42823e-14 0 0)
(-1.26679e-13 0 0)
(-5.97366e-14 0 0)
(-1.18894e-13 0 0)
(-8.65849e-14 0 0)
(-1.31592e-13 0 0)
(-1.38607e-13 0 0)
(-1.06084e-13 0 0)
(-9.20661e-14 0 0)
(-7.90733e-14 0 0)
(-1.44616e-13 0 0)
(-7.05571e-14 0 0)
(-1.31044e-13 0 0)
(-6.61011e-14 0 0)
(-1.75595e-13 0 0)
(-6.11781e-14 0 0)
(-1.40312e-13 0 0)
(-7.16127e-14 0 0)
(-1.2e-13 0 0)
(-6.71363e-14 0 0)
(-9.47661e-14 0 0)
(-9.48777e-14 0 0)
(-1.06896e-13 0 0)
(-9.51417e-14 0 0)
(-7.56931e-14 0 0)
(-7.34396e-14 0 0)
(-8.86758e-14 0 0)
(-4.6764e-14 0 0)
(-9.98412e-14 0 0)
(-3.58115e-14 0 0)
(-8.8899e-14 0 0)
(-6.17157e-14 0 0)
(-4.79819e-14 0 0)
(-2.21691e-14 0 0)
(-2.82084e-14 0 0)
(-5.04992e-14 0 0)
(-3.08172e-14 0 0)
(-9.5315e-15 0 0)
(5.84674e-15 0 0)
(-1.27491e-14 0 0)
(4.09069e-14 0 0)
(1.63223e-14 0 0)
(7.08613e-14 0 0)
(4.4612e-14 0 0)
(5.07733e-14 0 0)
(5.54225e-14 0 0)
(8.29405e-14 0 0)
(8.47779e-14 0 0)
(7.66067e-14 0 0)
(1.04064e-13 0 0)
(9.42483e-14 0 0)
(5.71583e-14 0 0)
(1.04419e-13 0 0)
(1.03445e-13 0 0)
(6.50757e-14 0 0)
(1.30455e-13 0 0)
(9.25533e-14 0 0)
(9.78417e-14 0 0)
(7.62412e-14 0 0)
(7.36733e-14 0 0)
(1.02206e-13 0 0)
(7.88297e-14 0 0)
(1.26923e-13 0 0)
(7.70534e-14 0 0)
(1.14753e-13 0 0)
(5.04181e-14 0 0)
(5.46205e-14 0 0)
(7.86874e-14 0 0)
(8.06973e-14 0 0)
(1.65356e-14 0 0)
(1.41997e-13 0 0)
(5.90158e-14 0 0)
(1.03891e-13 0 0)
(5.57574e-14 0 0)
(8.20473e-14 0 0)
(7.13081e-14 0 0)
(9.87146e-14 0 0)
(8.89195e-14 0 0)
(1.08825e-13 0 0)
(7.36732e-14 0 0)
(3.38321e-14 0 0)
(8.18239e-14 0 0)
(2.62395e-14 0 0)
(6.85368e-14 0 0)
(1.96619e-14 0 0)
(5.43867e-14 0 0)
(-1.42003e-14 0 0)
(5.83454e-14 0 0)
(-1.53272e-14 0 0)
(2.65437e-14 0 0)
(-1.9682e-14 0 0)
(-3.2157e-14 0 0)
(-5.4713e-15 0 0)
(-7.82306e-14 0 0)
(2.01589e-14 0 0)
(-4.76671e-14 0 0)
(3.71504e-15 0 0)
(-4.11809e-14 0 0)
(-5.75548e-15 0 0)
(-4.32822e-14 0 0)
(-3.21368e-14 0 0)
(-1.37744e-14 0 0)
(5.84667e-15 0 0)
(-3.72018e-14 0 0)
(6.0477e-14 0 0)
(-7.05449e-15 0 0)
(3.75369e-14 0 0)
(3.44309e-14 0 0)
(6.89124e-14 0 0)
(5.63358e-14 0 0)
(-5.97838e-15 0 0)
(1.11799e-13 0 0)
(5.14434e-14 0 0)
(9.1061e-14 0 0)
(6.7522e-14 0 0)
(1.0045e-13 0 0)
(7.13081e-14 0 0)
(9.82376e-14 0 0)
(8.93457e-14 0 0)
(1.0044e-13 0 0)
(6.80396e-14 0 0)
(1.08946e-13 0 0)
(8.68182e-14 0 0)
(9.68066e-14 0 0)
(1.47102e-13 0 0)
(1.46768e-13 0 0)
(1.11708e-13 0 0)
(1.71535e-13 0 0)
(1.64278e-13 0 0)
(1.65719e-13 0 0)
(2.09062e-13 0 0)
(1.46951e-13 0 0)
(2.17111e-13 0 0)
(1.55812e-13 0 0)
(1.84883e-13 0 0)
(1.58654e-13 0 0)
(1.24071e-13 0 0)
(1.22619e-13 0 0)
(1.01943e-13 0 0)
(1.13859e-13 0 0)
(8.45141e-14 0 0)
(1.29522e-13 0 0)
(1.22264e-13 0 0)
(1.27116e-13 0 0)
(1.20132e-13 0 0)
(1.12022e-13 0 0)
(1.50665e-13 0 0)
(1.12824e-13 0 0)
(9.39441e-14 0 0)
(1.26791e-13 0 0)
(7.63936e-14 0 0)
(1.2197e-13 0 0)
(6.45275e-14 0 0)
(5.38085e-14 0 0)
(7.00087e-14 0 0)
(4.83372e-14 0 0)
(3.94453e-14 0 0)
(5.4925e-14 0 0)
(5.29963e-14 0 0)
(6.24279e-15 0 0)
(7.36323e-14 0 0)
(1.66472e-14 0 0)
(5.25292e-14 0 0)
(6.57764e-15 0 0)
(-2.1438e-14 0 0)
(6.58773e-15 0 0)
(3.78614e-15 0 0)
(3.15786e-14 0 0)
(-4.56839e-16 0 0)
(1.51447e-14 0 0)
(-3.6877e-14 0 0)
(9.81542e-15 0 0)
(-8.87161e-14 0 0)
(-2.66991e-15 0 0)
(-9.78211e-14 0 0)
(-3.56796e-14 0 0)
(-9.19035e-14 0 0)
(-8.11948e-14 0 0)
(-7.06685e-14 0 0)
(-7.3328e-14 0 0)
(-7.52971e-14 0 0)
(-4.15871e-14 0 0)
(-3.95875e-14 0 0)
(-7.55711e-14 0 0)
(-2.39759e-14 0 0)
(-5.11386e-14 0 0)
(-2.67266e-14 0 0)
(-2.79142e-14 0 0)
(-4.06228e-14 0 0)
(-7.29929e-14 0 0)
(-4.72409e-14 0 0)
(-2.77417e-14 0 0)
(-2.49503e-14 0 0)
(-8.17224e-14 0 0)
(-3.7263e-14 0 0)
(-7.52058e-14 0 0)
(-4.6165e-14 0 0)
(-4.81647e-14 0 0)
(-2.08901e-14 0 0)
(-6.42126e-14 0 0)
(-3.08072e-14 0 0)
(-7.80377e-14 0 0)
(-1.21826e-15 0 0)
(-2.68381e-14 0 0)
(1.91946e-14 0 0)
(-4.00643e-14 0 0)
(3.00354e-14 0 0)
(-6.05075e-14 0 0)
(-1.48218e-15 0 0)
(-5.49756e-14 0 0)
(-7.59164e-14 0 0)
(-5.36462e-14 0 0)
(-1.45042e-13 0 0)
(-9.6028e-15 0 0)
(-1.16305e-13 0 0)
(-2.74171e-14 0 0)
(-1.19087e-13 0 0)
(-6.30455e-14 0 0)
(-7.45258e-14 0 0)
(-5.92999e-14 0 0)
(-1.02643e-13 0 0)
(-4.46629e-14 0 0)
(-8.23619e-14 0 0)
(-4.28255e-14 0 0)
(-6.0264e-14 0 0)
(-1.97951e-15 0 0)
(-3.2147e-14 0 0)
(-8.91226e-15 0 0)
(-3.35478e-14 0 0)
(-7.0171e-14 0 0)
(-2.25853e-14 0 0)
(-5.31688e-14 0 0)
(-4.36374e-14 0 0)
(-2.84726e-14 0 0)
(-3.40349e-14 0 0)
(-6.72782e-14 0 0)
(-2.88481e-14 0 0)
(-6.56236e-14 0 0)
(-3.25531e-14 0 0)
(-8.21792e-14 0 0)
(-5.76961e-14 0 0)
(-5.99496e-14 0 0)
(-8.94775e-14 0 0)
(-6.06703e-14 0 0)
(-3.86942e-14 0 0)
(-1.29775e-13 0 0)
(-3.40076e-15 0 0)
(-7.54697e-14 0 0)
(-3.06448e-14 0 0)
(-5.67823e-14 0 0)
(1.21095e-14 0 0)
(-2.899e-14 0 0)
(-2.45847e-14 0 0)
(2.84212e-15 0 0)
(-1.57639e-14 0 0)
(-5.48225e-16 0 0)
(-3.19032e-14 0 0)
(1.90626e-14 0 0)
(-2.21079e-14 0 0)
(-4.32618e-14 0 0)
(2.69993e-15 0 0)
(-9.63298e-15 0 0)
(-3.52124e-14 0 0)
(-2.98429e-14 0 0)
(-8.16108e-14 0 0)
(-3.97804e-14 0 0)
(-1.23401e-13 0 0)
(-2.1012e-14 0 0)
(-9.93541e-14 0 0)
(-6.84049e-14 0 0)
(-6.0721e-14 0 0)
(-5.74321e-14 0 0)
(-4.23789e-14 0 0)
(-6.14415e-14 0 0)
(-2.05551e-14 0 0)
(-4.90071e-14 0 0)
(-3.30808e-14 0 0)
(-6.27409e-14 0 0)
(-5.68433e-14 0 0)
(-1.94081e-14 0 0)
(-1.68095e-14 0 0)
(-4.56065e-14 0 0)
(-8.69922e-15 0 0)
(-2.55389e-14 0 0)
(-5.78787e-14 0 0)
(-1.59366e-14 0 0)
(-1.04399e-13 0 0)
(3.85445e-16 0 0)
(-9.11827e-14 0 0)
(-3.1934e-14 0 0)
(-1.0178e-13 0 0)
(-7.03845e-14 0 0)
(-1.30892e-13 0 0)
(-1.02572e-13 0 0)
(-1.32942e-13 0 0)
(-7.45767e-14 0 0)
(-1.17605e-13 0 0)
(-9.68979e-14 0 0)
(-1.26913e-13 0 0)
(-8.88383e-14 0 0)
(-9.67354e-14 0 0)
(-1.25329e-13 0 0)
(-1.01669e-13 0 0)
(-1.34881e-13 0 0)
(-7.80685e-14 0 0)
(-1.26913e-13 0 0)
(-6.81919e-14 0 0)
(-6.92475e-14 0 0)
(-4.68046e-14 0 0)
(-9.77299e-14 0 0)
(-2.20574e-14 0 0)
(-5.73509e-14 0 0)
(-6.17765e-14 0 0)
(-6.70753e-14 0 0)
(-7.2252e-14 0 0)
(-9.47356e-14 0 0)
(-5.08647e-14 0 0)
(-4.59214e-14 0 0)
(-6.90242e-14 0 0)
(-5.28746e-14 0 0)
(-5.74727e-14 0 0)
(-4.39826e-14 0 0)
(-2.32653e-14 0 0)
(-3.3568e-14 0 0)
(-5.06616e-14 0 0)
(-3.24616e-14 0 0)
(-2.49604e-14 0 0)
(-1.41098e-15 0 0)
(-2.14178e-14 0 0)
(-3.50399e-14 0 0)
(-2.90307e-15 0 0)
(-3.89479e-14 0 0)
(6.79064e-15 0 0)
(-6.32889e-14 0 0)
(1.37843e-14 0 0)
(-6.24971e-14 0 0)
(1.50735e-14 0 0)
(-4.95754e-14 0 0)
(-7.48105e-15 0 0)
(-1.99865e-14 0 0)
(-1.57335e-14 0 0)
(-1.02723e-14 0 0)
(2.39858e-14 0 0)
(1.66166e-14 0 0)
(6.22739e-14 0 0)
(7.01001e-14 0 0)
(4.08258e-14 0 0)
(7.14298e-14 0 0)
(3.01067e-14 0 0)
(7.75709e-14 0 0)
(4.06126e-14 0 0)
(1.05394e-13 0 0)
(7.36833e-14 0 0)
(1.04003e-13 0 0)
(7.51654e-14 0 0)
(1.36292e-13 0 0)
(5.73613e-14 0 0)
(1.10905e-13 0 0)
(6.71566e-14 0 0)
(8.09307e-14 0 0)
(7.29222e-14 0 0)
(1.08165e-13 0 0)
(8.30626e-14 0 0)
(9.85116e-14 0 0)
(9.15687e-14 0 0)
(6.53802e-14 0 0)
(9.80244e-14 0 0)
(5.3981e-14 0 0)
(6.6933e-14 0 0)
(2.425e-14 0 0)
(6.20506e-14 0 0)
(3.85927e-14 0 0)
(2.64728e-14 0 0)
(4.78397e-14 0 0)
(2.21893e-14 0 0)
(1.9408e-14 0 0)
(1.44137e-15 0 0)
(2.61378e-14 0 0)
(-7.00387e-15 0 0)
(1.86467e-14 0 0)
(1.145e-14 0 0)
(4.6104e-14 0 0)
(3.04823e-14 0 0)
(2.62698e-14 0 0)
(2.67165e-14 0 0)
(5.62748e-14 0 0)
(4.31299e-14 0 0)
(1.66167e-14 0 0)
(7.02218e-14 0 0)
(3.55374e-14 0 0)
(7.40283e-14 0 0)
(4.20235e-14 0 0)
(1.12267e-14 0 0)
(9.18121e-14 0 0)
(4.84794e-14 0 0)
(8.78332e-14 0 0)
(6.64358e-14 0 0)
(1.22437e-13 0 0)
(6.49538e-14 0 0)
(7.33381e-14 0 0)
(4.9464e-14 0 0)
(8.92847e-14 0 0)
(7.32265e-14 0 0)
(8.88178e-14 0 0)
(8.68385e-14 0 0)
(4.89159e-14 0 0)
(9.0452e-14 0 0)
(4.88346e-14 0 0)
(7.02016e-14 0 0)
(4.65914e-14 0 0)
(7.11455e-14 0 0)
(7.3796e-15 0 0)
(5.41128e-14 0 0)
(-3.65405e-15 0 0)
(4.67637e-14 0 0)
(-2.53053e-14 0 0)
(3.34563e-14 0 0)
(-3.47251e-14 0 0)
(5.1636e-14 0 0)
(-1.07494e-14 0 0)
(3.51921e-14 0 0)
(-1.13687e-14 0 0)
(1.96719e-14 0 0)
(1.8657e-14 0 0)
(6.25073e-14 0 0)
(5.28948e-14 0 0)
(2.49909e-14 0 0)
(8.06769e-14 0 0)
(5.1352e-14 0 0)
(4.21454e-14 0 0)
(4.98191e-14 0 0)
(5.20827e-14 0 0)
(7.24771e-15 0 0)
(5.58688e-14 0 0)
(6.7807e-15 0 0)
(2.97311e-14 0 0)
(1.23736e-14 0 0)
(4.59822e-14 0 0)
(2.30622e-14 0 0)
(1.68508e-15 0 0)
(3.72324e-14 0 0)
(1.86163e-14 0 0)
(4.28455e-14 0 0)
(-2.55589e-14 0 0)
(8.46658e-14 0 0)
(-8.83082e-15 0 0)
(1.90121e-14 0 0)
(8.12156e-16 0 0)
(4.21452e-14 0 0)
(1.89411e-14 0 0)
(5.87314e-14 0 0)
(2.39352e-14 0 0)
(6.77857e-14 0 0)
(3.18933e-14 0 0)
(4.10693e-14 0 0)
(2.68079e-14 0 0)
(4.69769e-14 0 0)
(5.05906e-14 0 0)
(4.65203e-14 0 0)
(5.57165e-14 0 0)
(-1.09015e-14 0 0)
(4.68854e-14 0 0)
(-4.8692e-14 0 0)
(9.62071e-14 0 0)
(3.93869e-15 0 0)
(6.07817e-14 0 0)
(1.32569e-14 0 0)
(7.89513e-14 0 0)
(1.92762e-14 0 0)
(7.63933e-14 0 0)
(3.87652e-14 0 0)
(5.44073e-14 0 0)
(2.50315e-14 0 0)
(8.60973e-14 0 0)
(4.51702e-14 0 0)
(4.21658e-14 0 0)
(4.73729e-14 0 0)
(5.96754e-14 0 0)
(5.02862e-14 0 0)
(4.94233e-14 0 0)
(6.52886e-14 0 0)
(1.90225e-14 0 0)
(9.80545e-14 0 0)
(-3.61357e-14 0 0)
(1.22355e-13 0 0)
(-4.97125e-16 0 0)
(8.4392e-14 0 0)
(8.73212e-16 0 0)
(1.08459e-13 0 0)
(2.76199e-14 0 0)
(6.15838e-14 0 0)
(5.70467e-15 0 0)
(6.35631e-14 0 0)
(3.45124e-15 0 0)
(6.334e-15 0 0)
(-3.36994e-15 0 0)
(3.92827e-14 0 0)
(1.92872e-15 0 0)
(7.74488e-15 0 0)
(1.87381e-14 0 0)
(4.90476e-14 0 0)
(3.62884e-14 0 0)
(2.16213e-15 0 0)
(3.35376e-14 0 0)
(1.26578e-14 0 0)
(1.69819e-14 0 0)
(-2.05651e-14 0 0)
(-6.1513e-15 0 0)
(-4.64186e-14 0 0)
(-5.2073e-15 0 0)
(-4.23483e-14 0 0)
(-5.90781e-15 0 0)
(-1.08632e-13 0 0)
(-4.31505e-14 0 0)
(-1.4492e-13 0 0)
(-3.13048e-14 0 0)
(-1.35419e-13 0 0)
(-6.04371e-14 0 0)
(-1.41895e-13 0 0)
(-9.36395e-14 0 0)
(-1.00674e-13 0 0)
(-7.1501e-14 0 0)
(-7.79059e-14 0 0)
(-9.82984e-14 0 0)
(-2.94775e-14 0 0)
(-4.11506e-14 0 0)
(-5.71174e-14 0 0)
(-3.24008e-14 0 0)
(-2.2098e-14 0 0)
(-4.3343e-14 0 0)
(-4.70886e-14 0 0)
(-3.28576e-14 0 0)
(-2.7894e-14 0 0)
(-7.89715e-14 0 0)
(-2.61989e-14 0 0)
(-7.95095e-14 0 0)
(-4.93346e-15 0 0)
(-8.48487e-14 0 0)
(-4.82054e-14 0 0)
(-5.42347e-14 0 0)
(-7.84235e-14 0 0)
(-2.80462e-14 0 0)
(-3.23398e-14 0 0)
(2.72542e-14 0 0)
(-5.53306e-14 0 0)
(1.03495e-13 0 0)
(5.40625e-14 0 0)
(2.23537e-13 0 0)
(2.94956e-13 0 0)
(5.58446e-13 0 0)
(9.66683e-13 0 0)
(1.65714e-12 0 0)
(2.91013e-12 0 0)
(4.9831e-12 0 0)
(8.70475e-12 0 0)
(1.49466e-11 0 0)
(2.57104e-11 0 0)
(4.39301e-11 0 0)
(7.47679e-11 0 0)
(1.26531e-10 0 0)
(2.13109e-10 0 0)
(3.56955e-10 0 0)
(5.94723e-10 0 0)
(9.85614e-10 0 0)
(1.62444e-09 0 0)
(2.66275e-09 0 0)
(4.34065e-09 0 0)
(7.03642e-09 0 0)
(1.13426e-08 0 0)
(1.81804e-08 0 0)
(2.89745e-08 0 0)
(4.59116e-08 0 0)
(7.23278e-08 0 0)
(1.13277e-07 0 0)
(1.76365e-07 0 0)
(2.72956e-07 0 0)
(4.19918e-07 0 0)
(6.42103e-07 0 0)
(9.75869e-07 0 0)
(1.47402e-06 0 0)
(2.21268e-06 0 0)
(3.30077e-06 0 0)
(4.89295e-06 0 0)
(7.20715e-06 0 0)
(1.05481e-05 0 0)
(1.53382e-05 0 0)
(2.21591e-05 0 0)
(3.18038e-05 0 0)
(4.53457e-05 0 0)
(6.42249e-05 0 0)
(9.03568e-05 0 0)
(0.000126267 0 0)
(0.000175254 0 0)
(0.000241593 0 0)
(0.000330763 0 0)
(0.00044973 0 0)
(0.000607263 0 0)
(0.00081429 0 0)
(0.0010843 0 0)
(0.00143376 0 0)
(0.00188262 0 0)
(0.00245471 0 0)
(0.00317829 0 0)
(0.00408646 0 0)
(0.00521758 0 0)
(0.00661566 0 0)
(0.00833061 0 0)
(0.0104184 0 0)
(0.0129412 0 0)
(0.0159672 0 0)
(0.0195704 0 0)
(0.0238303 0 0)
(0.0288311 0 0)
(0.0346616 0 0)
(0.0414138 0 0)
(0.0491823 0 0)
(0.0580634 0 0)
(0.0681541 0 0)
(0.0795509 0 0)
(0.0923489 0 0)
(0.106641 0 0)
(0.122517 0 0)
(0.140064 0 0)
(0.159362 0 0)
(0.180488 0 0)
(0.203513 0 0)
(0.228503 0 0)
(0.255518 0 0)
(0.284612 0 0)
(0.315835 0 0)
(0.349229 0 0)
(0.384832 0 0)
(0.42268 0 0)
(0.4628 0 0)
(0.50522 0 0)
(0.549959 0 0)
(0.597039 0 0)
(0.646474 0 0)
(0.69828 0 0)
(0.752468 0 0)
(0.809049 0 0)
(0.868033 0 0)
(0.929427 0 0)
(0.99324 0 0)
(1.05948 0 0)
(1.12815 0 0)
(1.19926 0 0)
(1.27281 0 0)
(1.34881 0 0)
(1.42727 0 0)
(1.50819 0 0)
(1.59158 0 0)
(1.67744 0 0)
(1.76578 0 0)
(1.85661 0 0)
(1.94994 0 0)
(2.04576 0 0)
(2.14409 0 0)
(2.24494 0 0)
(2.34831 0 0)
(2.4542 0 0)
(2.56264 0 0)
(2.67362 0 0)
(2.78716 0 0)
(2.90325 0 0)
(3.02193 0 0)
(3.14318 0 0)
(3.26702 0 0)
(3.39346 0 0)
(3.52252 0 0)
(3.65419 0 0)
(3.7885 0 0)
(3.92545 0 0)
(4.06505 0 0)
(4.20732 0 0)
(4.35226 0 0)
(4.49989 0 0)
(4.65022 0 0)
(4.80326 0 0)
(4.95903 0 0)
(5.11753 0 0)
(5.27879 0 0)
(5.4428 0 0)
(5.6096 0 0)
(5.77918 0 0)
(5.95157 0 0)
(6.12677 0 0)
(6.30481 0 0)
(6.48569 0 0)
(6.66943 0 0)
(6.85605 0 0)
(7.04556 0 0)
(7.23797 0 0)
(7.4333 0 0)
(7.63157 0 0)
(7.83279 0 0)
(8.03697 0 0)
(8.24414 0 0)
(8.45431 0 0)
(8.66749 0 0)
(8.88371 0 0)
(9.10297 0 0)
(9.3253 0 0)
(9.55072 0 0)
(9.77924 0 0)
(10.0109 0 0)
(10.2457 0 0)
(10.4836 0 0)
(10.7247 0 0)
(10.969 0 0)
(11.2165 0 0)
(11.4674 0 0)
(11.7213 0 0)
(11.9788 0 0)
(12.2391 0 0)
(12.5035 0 0)
(12.7702 0 0)
(13.0416 0 0)
(13.3149 0 0)
(13.5932 0 0)
(13.8732 0 0)
(14.1586 0 0)
(14.4454 0 0)
(14.738 0 0)
(15.0315 0 0)
(15.3313 0 0)
(15.6312 0 0)
(15.9373 0 0)
(16.2453 0 0)
(16.5556 0 0)
(16.8688 0 0)
(17.1856 0 0)
(17.5061 0 0)
(17.8305 0 0)
(18.1585 0 0)
(18.4902 0 0)
(18.8255 0 0)
(19.1643 0 0)
(19.5067 0 0)
(19.8529 0 0)
(20.2027 0 0)
(20.5563 0 0)
(20.9136 0 0)
(21.2746 0 0)
(21.6394 0 0)
(22.0079 0 0)
(22.3803 0 0)
(22.7565 0 0)
(23.1365 0 0)
(23.5204 0 0)
(23.9081 0 0)
(24.2998 0 0)
(24.6953 0 0)
(25.0948 0 0)
(25.4983 0 0)
(25.9056 0 0)
(26.3172 0 0)
(26.7323 0 0)
(27.1522 0 0)
(27.575 0 0)
(28.0036 0 0)
(28.4336 0 0)
(28.8716 0 0)
(29.3083 0 0)
(29.7567 0 0)
(30.199 0 0)
(30.659 0 0)
(31.106 0 0)
(31.5785 0 0)
(32.0296 0 0)
(32.515 0 0)
(32.9702 0 0)
(33.4687 0 0)
(33.928 0 0)
(34.4397 0 0)
(34.9031 0 0)
(35.4282 0 0)
(35.8956 0 0)
(36.4344 0 0)
(36.9058 0 0)
(37.4582 0 0)
(37.9336 0 0)
(38.5001 0 0)
(38.9794 0 0)
(39.5599 0 0)
(40.0431 0 0)
(40.638 0 0)
(41.125 0 0)
(41.7343 0 0)
(42.2251 0 0)
(42.8491 0 0)
(43.3435 0 0)
(43.9824 0 0)
(44.4803 0 0)
(45.1342 0 0)
(45.6356 0 0)
(46.3048 0 0)
(46.8094 0 0)
(47.4941 0 0)
(48.0018 0 0)
(48.7022 0 0)
(49.2128 0 0)
(49.929 0 0)
(50.4423 0 0)
(51.1747 0 0)
(51.6902 0 0)
(52.439 0 0)
(52.9567 0 0)
(53.7218 0 0)
(54.2414 0 0)
(55.0231 0 0)
(55.5443 0 0)
(56.3425 0 0)
(56.865 0 0)
(57.6799 0 0)
(58.203 0 0)
(59.0348 0 0)
(59.5579 0 0)
(60.4063 0 0)
(60.9282 0 0)
(61.793 0 0)
(62.3107 0 0)
(63.1911 0 0)
(63.6962 0 0)
(64.5881 0 0)
(65.0521 0 0)
(66.5797 0 0)
)
;

boundaryField
{
    sideLeft
    {
        type            symmetryPlane;
    }
    sideRight
    {
        type            calculated;
        value           uniform (66.2295 0 0);
    }
    topbottom
    {
        type            empty;
    }
    frontback
    {
        type            empty;
    }
}


// ************************************************************************* //
