/*--------------------------------*- C++ -*----------------------------------*\
| =========                 |                                                 |
| \\      /  F ield         | OpenFOAM: The Open Source CFD Toolbox           |
|  \\    /   O peration     | Version:  2.4.0                                 |
|   \\  /    A nd           | Web:      www.OpenFOAM.org                      |
|    \\/     M anipulation  |                                                 |
\*---------------------------------------------------------------------------*/
FoamFile
{
    version     2.0;
    format      ascii;
    class       volVectorField;
    location    "0.07";
    object      U.air;
}
// * * * * * * * * * * * * * * * * * * * * * * * * * * * * * * * * * * * * * //

dimensions      [0 1 -1 0 0 0 0];

internalField   nonuniform List<vector> 
1000
(
(1.42117e-14 0 0)
(4.26323e-14 0 0)
(6.39491e-14 0 0)
(2.06057e-13 0 0)
(2.41585e-13 0 0)
(5.25801e-13 0 0)
(2.84217e-13 0 0)
(1.84741e-13 0 0)
(1.56319e-13 0 0)
(-1.98952e-13 0 0)
(-3.83693e-13 0 0)
(-3.12638e-13 0 0)
(-3.2685e-13 0 0)
(-4.47641e-13 0 0)
(-3.33956e-13 0 0)
(-1.91846e-13 0 0)
(1.42105e-14 0 0)
(8.52654e-14 0 0)
(4.97379e-13 0 0)
(7.10543e-13 0 0)
(8.02913e-13 0 0)
(7.03438e-13 0 0)
(6.75016e-13 0 0)
(4.12115e-13 0 0)
(3.55271e-13 0 0)
(5.04485e-13 0 0)
(5.32907e-13 0 0)
(5.32907e-13 0 0)
(3.33956e-13 0 0)
(3.05533e-13 0 0)
(3.05534e-13 0 0)
(4.1922e-13 0 0)
(3.97904e-13 0 0)
(4.97381e-14 0 0)
(1.49213e-13 0 0)
(-7.10449e-15 0 0)
(4.26317e-14 0 0)
(-2.13157e-14 0 0)
(3.83693e-13 0 0)
(4.19221e-13 0 0)
(4.40536e-13 0 0)
(4.0501e-13 0 0)
(3.48166e-13 0 0)
(2.98428e-13 0 0)
(3.33955e-13 0 0)
(1.20792e-13 0 0)
(6.39488e-14 0 0)
(7.10543e-14 0 0)
(-5.68433e-14 0 0)
(-2.06058e-13 0 0)
(-3.76587e-13 0 0)
(-6.46594e-13 0 0)
(-7.03437e-13 0 0)
(-8.10019e-13 0 0)
(-9.59232e-13 0 0)
(-8.59757e-13 0 0)
(-9.37917e-13 0 0)
(-7.88702e-13 0 0)
(-1.22924e-12 0 0)
(-1.19371e-12 0 0)
(-1.22213e-12 0 0)
(-1.03029e-12 0 0)
(-7.67386e-13 0 0)
(-6.82121e-13 0 0)
(-9.09495e-13 0 0)
(-7.31859e-13 0 0)
(-4.9738e-13 0 0)
(-4.05009e-13 0 0)
(-2.77112e-13 0 0)
(-1.98952e-13 0 0)
(-1.77635e-13 0 0)
(-4.83169e-13 0 0)
(-3.83693e-13 0 0)
(-2.55796e-13 0 0)
(-1.27898e-13 0 0)
(2.8422e-14 0 0)
(-1.13687e-13 0 0)
(-9.94757e-14 0 0)
(-4.26325e-14 0 0)
(1.42109e-13 0 0)
(3.33955e-13 0 0)
(1.35003e-13 0 0)
(2.91323e-13 0 0)
(4.47642e-13 0 0)
(2.34479e-13 0 0)
(1.7053e-13 0 0)
(-8.52648e-14 0 0)
(-7.10579e-15 0 0)
(-5.68433e-14 0 0)
(1.98952e-13 0 0)
(2.84215e-14 0 0)
(-2.62901e-13 0 0)
(-1.91846e-13 0 0)
(-3.05534e-13 0 0)
(-4.68958e-13 0 0)
(-5.7554e-13 0 0)
(-1.10845e-12 0 0)
(-1.20082e-12 0 0)
(-1.1795e-12 0 0)
(-1.13687e-12 0 0)
(-1.00187e-12 0 0)
(-8.52651e-13 0 0)
(-5.68434e-13 0 0)
(-4.05009e-13 0 0)
(-4.9738e-13 0 0)
(-3.69482e-13 0 0)
(-2.91323e-13 0 0)
(-3.55271e-13 0 0)
(-4.76063e-13 0 0)
(-4.0501e-13 0 0)
(-5.32907e-13 0 0)
(-5.54224e-13 0 0)
(-4.83169e-13 0 0)
(-1.27898e-13 0 0)
(-4.97378e-14 0 0)
(-1.84741e-13 0 0)
(-2.84217e-13 0 0)
(-2.62901e-13 0 0)
(-2.84217e-14 0 0)
(-1.77636e-13 0 0)
(9.9476e-14 0 0)
(1.91847e-13 0 0)
(3.4106e-13 0 0)
(3.33955e-13 0 0)
(1.91846e-13 0 0)
(2.13164e-14 0 0)
(8.52649e-14 0 0)
(-2.84217e-13 0 0)
(-3.05534e-13 0 0)
(-1.91846e-13 0 0)
(-1.5632e-13 0 0)
(-4.26325e-13 0 0)
(-6.03962e-13 0 0)
(-5.8975e-13 0 0)
(-6.32383e-13 0 0)
(-7.17648e-13 0 0)
(-7.88703e-13 0 0)
(-7.10543e-13 0 0)
(-3.19744e-13 0 0)
(-1.27898e-13 0 0)
(-2.70006e-13 0 0)
(-3.41061e-13 0 0)
(-2.20268e-13 0 0)
(-4.26329e-14 0 0)
(-6.39486e-14 0 0)
(-2.34479e-13 0 0)
(-1.91847e-13 0 0)
(-3.55271e-14 0 0)
(-1.27898e-13 0 0)
(-8.5265e-14 0 0)
(-1.63425e-13 0 0)
(-3.05533e-13 0 0)
(-1.42109e-13 0 0)
(-3.62377e-13 0 0)
(-3.97904e-13 0 0)
(-3.90798e-13 0 0)
(-3.55271e-13 0 0)
(-7.10544e-14 0 0)
(-2.13163e-13 0 0)
(2.84216e-14 0 0)
(1.27898e-13 0 0)
(1.27897e-13 0 0)
(3.48166e-13 0 0)
(4.26325e-13 0 0)
(9.23709e-14 0 0)
(8.52648e-14 0 0)
(-1.42106e-14 0 0)
(2.4869e-13 0 0)
(1.98952e-13 0 0)
(3.55271e-13 0 0)
(5.68434e-13 0 0)
(6.53699e-13 0 0)
(5.61329e-13 0 0)
(5.32907e-13 0 0)
(4.68959e-13 0 0)
(4.76063e-13 0 0)
(3.05534e-13 0 0)
(1.77635e-13 0 0)
(-3.5527e-14 0 0)
(-7.10541e-14 0 0)
(-7.31709e-20 0 0)
(-9.23706e-14 0 0)
(-1.13687e-13 0 0)
(-5.68429e-14 0 0)
(-1.20793e-13 0 0)
(-3.26849e-13 0 0)
(-3.05534e-13 0 0)
(-2.55795e-13 0 0)
(1.13686e-13 0 0)
(2.84222e-14 0 0)
(2.20268e-13 0 0)
(9.23709e-14 0 0)
(2.34479e-13 0 0)
(4.9738e-14 0 0)
(-9.9476e-14 0 0)
(-1.7053e-13 0 0)
(-1.49214e-13 0 0)
(-1.42109e-14 0 0)
(-1.42109e-13 0 0)
(-5.04485e-13 0 0)
(-5.25802e-13 0 0)
(-4.68958e-13 0 0)
(-2.55796e-13 0 0)
(-3.48166e-13 0 0)
(-1.56319e-13 0 0)
(-7.10543e-14 0 0)
(-1.20792e-13 0 0)
(-2.91323e-13 0 0)
(-6.11067e-13 0 0)
(-6.11067e-13 0 0)
(-7.74492e-13 0 0)
(-6.32383e-13 0 0)
(-4.61853e-13 0 0)
(-3.76588e-13 0 0)
(-3.90798e-13 0 0)
(-3.05534e-13 0 0)
(-3.83693e-13 0 0)
(-4.26326e-13 0 0)
(-3.69482e-13 0 0)
(1.42108e-13 0 0)
(1.06581e-13 0 0)
(-4.26324e-14 0 0)
(3.55271e-13 0 0)
(7.1053e-15 0 0)
(-1.06581e-13 0 0)
(-3.12639e-13 0 0)
(2.13161e-14 0 0)
(2.13167e-14 0 0)
(1.06581e-13 0 0)
(1.49214e-13 0 0)
(-2.84218e-14 0 0)
(-9.23705e-14 0 0)
(-1.98952e-13 0 0)
(-1.7053e-13 0 0)
(-4.33431e-13 0 0)
(-1.77636e-13 0 0)
(-5.68431e-14 0 0)
(4.97376e-14 0 0)
(-2.13163e-13 0 0)
(-2.62901e-13 0 0)
(7.10536e-15 0 0)
(1.84741e-13 0 0)
(2.13169e-14 0 0)
(1.35002e-13 0 0)
(-9.94756e-14 0 0)
(-1.27898e-13 0 0)
(-5.68432e-14 0 0)
(7.10531e-15 0 0)
(1.31218e-19 0 0)
(3.5527e-14 0 0)
(-9.94759e-14 0 0)
(-7.10565e-15 0 0)
(2.62901e-13 0 0)
(3.12639e-13 0 0)
(5.8975e-13 0 0)
(3.19745e-13 0 0)
(7.4607e-13 0 0)
(6.75016e-13 0 0)
(4.61852e-13 0 0)
(6.537e-13 0 0)
(9.73443e-13 0 0)
(1.33582e-12 0 0)
(1.13687e-12 0 0)
(8.38441e-13 0 0)
(6.25278e-13 0 0)
(9.166e-13 0 0)
(7.46071e-13 0 0)
(6.96331e-13 0 0)
(5.04486e-13 0 0)
(4.68958e-13 0 0)
(5.54224e-13 0 0)
(2.06057e-13 0 0)
(-4.97378e-14 0 0)
(-8.52651e-14 0 0)
(-3.05533e-13 0 0)
(-4.0501e-13 0 0)
(-6.32383e-13 0 0)
(-6.11067e-13 0 0)
(-6.82121e-13 0 0)
(-6.18172e-13 0 0)
(-6.82121e-13 0 0)
(-6.96332e-13 0 0)
(-6.11067e-13 0 0)
(-1.63424e-13 0 0)
(2.98427e-13 0 0)
(1.13687e-13 0 0)
(-2.8422e-14 0 0)
(1.20792e-13 0 0)
(4.33431e-13 0 0)
(6.46594e-13 0 0)
(6.18172e-13 0 0)
(5.40013e-13 0 0)
(5.54223e-13 0 0)
(4.12115e-13 0 0)
(4.54747e-13 0 0)
(3.12639e-13 0 0)
(3.76588e-13 0 0)
(5.18696e-13 0 0)
(5.04485e-13 0 0)
(3.62377e-13 0 0)
(4.1922e-13 0 0)
(3.48166e-13 0 0)
(5.7554e-13 0 0)
(5.82645e-13 0 0)
(2.41585e-13 0 0)
(1.06581e-13 0 0)
(-2.84214e-14 0 0)
(-1.06582e-13 0 0)
(-2.41585e-13 0 0)
(-4.33431e-13 0 0)
(-4.83169e-13 0 0)
(-4.33431e-13 0 0)
(-2.41585e-13 0 0)
(-9.23703e-14 0 0)
(-1.06582e-13 0 0)
(-3.33955e-13 0 0)
(-3.83693e-13 0 0)
(-3.97904e-13 0 0)
(-5.25801e-13 0 0)
(-4.47642e-13 0 0)
(-3.97904e-13 0 0)
(-6.46594e-13 0 0)
(-6.32383e-13 0 0)
(-4.61853e-13 0 0)
(-1.84741e-13 0 0)
(-2.06057e-13 0 0)
(-3.05533e-13 0 0)
(-1.7053e-13 0 0)
(-4.33431e-13 0 0)
(-6.46594e-13 0 0)
(-5.68434e-13 0 0)
(-4.26326e-13 0 0)
(-1.63424e-13 0 0)
(-6.39493e-14 0 0)
(-9.23702e-14 0 0)
(-1.5632e-13 0 0)
(-1.7053e-13 0 0)
(-1.84741e-13 0 0)
(-1.77636e-13 0 0)
(8.20661e-20 0 0)
(2.06057e-13 0 0)
(1.4211e-14 0 0)
(-1.42109e-13 0 0)
(-2.06057e-13 0 0)
(-1.42109e-13 0 0)
(2.84223e-14 0 0)
(9.94754e-14 0 0)
(-4.2632e-14 0 0)
(1.42108e-13 0 0)
(5.68436e-14 0 0)
(4.9738e-14 0 0)
(4.83169e-13 0 0)
(6.03961e-13 0 0)
(5.18696e-13 0 0)
(7.60281e-13 0 0)
(7.81597e-13 0 0)
(5.96856e-13 0 0)
(2.70006e-13 0 0)
(1.91847e-13 0 0)
(3.4106e-13 0 0)
(3.90798e-13 0 0)
(5.47118e-13 0 0)
(5.61329e-13 0 0)
(6.03961e-13 0 0)
(4.54747e-13 0 0)
(2.77111e-13 0 0)
(5.68438e-14 0 0)
(6.39485e-14 0 0)
(3.55274e-14 0 0)
(2.62901e-13 0 0)
(2.70006e-13 0 0)
(2.55795e-13 0 0)
(1.91847e-13 0 0)
(7.1054e-14 0 0)
(4.2633e-14 0 0)
(-1.42112e-14 0 0)
(1.13687e-13 0 0)
(4.1922e-13 0 0)
(6.39493e-14 0 0)
(1.49213e-13 0 0)
(2.3448e-13 0 0)
(3.33955e-13 0 0)
(5.04485e-13 0 0)
(5.54223e-13 0 0)
(5.8975e-13 0 0)
(6.03962e-13 0 0)
(9.80548e-13 0 0)
(8.95284e-13 0 0)
(7.95807e-13 0 0)
(8.02914e-13 0 0)
(7.60281e-13 0 0)
(3.62377e-13 0 0)
(3.69482e-13 0 0)
(5.54224e-13 0 0)
(6.75015e-13 0 0)
(5.11591e-13 0 0)
(9.02389e-13 0 0)
(1.07292e-12 0 0)
(1.47082e-12 0 0)
(1.4353e-12 0 0)
(1.10845e-12 0 0)
(1.20792e-12 0 0)
(1.03029e-12 0 0)
(6.89226e-13 0 0)
(5.25802e-13 0 0)
(5.18696e-13 0 0)
(5.25802e-13 0 0)
(2.84217e-13 0 0)
(2.41585e-13 0 0)
(3.76587e-13 0 0)
(4.97382e-14 0 0)
(1.20792e-13 0 0)
(3.41061e-13 0 0)
(3.69482e-13 0 0)
(1.13687e-13 0 0)
(2.13165e-14 0 0)
(-4.47642e-13 0 0)
(-7.38965e-13 0 0)
(-8.3844e-13 0 0)
(-5.40013e-13 0 0)
(-7.24753e-13 0 0)
(-7.03438e-13 0 0)
(-6.60804e-13 0 0)
(-3.55272e-13 0 0)
(-1.63425e-13 0 0)
(-1.06581e-13 0 0)
(-4.26327e-14 0 0)
(-1.42108e-13 0 0)
(-1.35003e-13 0 0)
(-4.12115e-13 0 0)
(-5.25802e-13 0 0)
(-7.24754e-13 0 0)
(-5.11591e-13 0 0)
(-2.13163e-13 0 0)
(-3.83693e-13 0 0)
(-3.2685e-13 0 0)
(-4.47642e-13 0 0)
(-4.9738e-13 0 0)
(-4.12115e-13 0 0)
(-7.38964e-13 0 0)
(-5.89751e-13 0 0)
(-4.68958e-13 0 0)
(-3.97904e-13 0 0)
(-3.2685e-13 0 0)
(-1.84741e-13 0 0)
(-2.06058e-13 0 0)
(-2.41584e-13 0 0)
(-3.2685e-13 0 0)
(-6.53699e-13 0 0)
(-5.7554e-13 0 0)
(-2.20268e-13 0 0)
(-3.2685e-13 0 0)
(-1.91847e-13 0 0)
(-7.10556e-15 0 0)
(6.39491e-14 0 0)
(3.48166e-13 0 0)
(4.05009e-13 0 0)
(3.83693e-13 0 0)
(1.7053e-13 0 0)
(-2.27373e-13 0 0)
(3.26849e-13 0 0)
(2.91323e-13 0 0)
(1.35003e-13 0 0)
(-1.63424e-13 0 0)
(-1.06582e-13 0 0)
(7.10569e-15 0 0)
(2.77112e-13 0 0)
(3.48166e-13 0 0)
(4.05009e-13 0 0)
(3.90799e-13 0 0)
(4.33431e-13 0 0)
(6.18172e-13 0 0)
(6.60805e-13 0 0)
(5.40012e-13 0 0)
(3.41061e-13 0 0)
(2.98428e-13 0 0)
(5.47118e-13 0 0)
(6.32383e-13 0 0)
(6.32383e-13 0 0)
(7.60281e-13 0 0)
(4.68958e-13 0 0)
(3.48166e-13 0 0)
(2.20269e-13 0 0)
(2.06057e-13 0 0)
(-1.35003e-13 0 0)
(-1.98952e-13 0 0)
(-2.27374e-13 0 0)
(-2.20268e-13 0 0)
(-1.98952e-13 0 0)
(-4.97382e-14 0 0)
(-4.97381e-14 0 0)
(3.55273e-14 0 0)
(2.13163e-13 0 0)
(3.69482e-13 0 0)
(3.05533e-13 0 0)
(2.77112e-13 0 0)
(4.76064e-13 0 0)
(4.68958e-13 0 0)
(4.83169e-13 0 0)
(5.61329e-13 0 0)
(6.89226e-13 0 0)
(6.25278e-13 0 0)
(5.54224e-13 0 0)
(5.54223e-13 0 0)
(4.47642e-13 0 0)
(2.41584e-13 0 0)
(1.42109e-13 0 0)
(2.77111e-13 0 0)
(-7.81592e-14 0 0)
(-1.27898e-13 0 0)
(-3.33955e-13 0 0)
(-1.7053e-13 0 0)
(-1.84741e-13 0 0)
(-2.98428e-13 0 0)
(-3.4106e-13 0 0)
(-2.27374e-13 0 0)
(-5.47118e-13 0 0)
(-7.31859e-13 0 0)
(-6.03961e-13 0 0)
(-6.89226e-13 0 0)
(-5.04486e-13 0 0)
(-4.40536e-13 0 0)
(-2.84221e-14 0 0)
(-2.06057e-13 0 0)
(8.52649e-14 0 0)
(9.23707e-14 0 0)
(4.26323e-14 0 0)
(6.39492e-14 0 0)
(1.91846e-13 0 0)
(7.81601e-14 0 0)
(-1.77636e-13 0 0)
(-1.77636e-13 0 0)
(-1.91847e-13 0 0)
(2.27374e-13 0 0)
(7.03437e-13 0 0)
(6.6791e-13 0 0)
(3.62377e-13 0 0)
(4.40536e-13 0 0)
(6.537e-13 0 0)
(9.45022e-13 0 0)
(1.15108e-12 0 0)
(1.23634e-12 0 0)
(1.18661e-12 0 0)
(1.1795e-12 0 0)
(1.23634e-12 0 0)
(1.15818e-12 0 0)
(1.15108e-12 0 0)
(8.81073e-13 0 0)
(6.53699e-13 0 0)
(6.11067e-13 0 0)
(6.89226e-13 0 0)
(3.33955e-13 0 0)
(1.49214e-13 0 0)
(4.97381e-14 0 0)
(-2.27374e-13 0 0)
(-4.9738e-14 0 0)
(3.41061e-13 0 0)
(1.06582e-13 0 0)
(-1.13687e-13 0 0)
(-1.56319e-13 0 0)
(-1.20792e-13 0 0)
(2.34479e-13 0 0)
(9.23708e-14 0 0)
(-7.816e-14 0 0)
(-1.35003e-13 0 0)
(-2.41584e-13 0 0)
(-4.97384e-14 0 0)
(-2.91322e-13 0 0)
(-4.90275e-13 0 0)
(-7.4607e-13 0 0)
(-8.45546e-13 0 0)
(-9.59232e-13 0 0)
(-9.66338e-13 0 0)
(-7.53175e-13 0 0)
(-5.04486e-13 0 0)
(-6.11067e-13 0 0)
(-5.18696e-13 0 0)
(-4.61853e-13 0 0)
(-3.19744e-13 0 0)
(-3.12639e-13 0 0)
(-4.33431e-13 0 0)
(-1.27898e-13 0 0)
(-8.52649e-14 0 0)
(2.84214e-14 0 0)
(-1.27897e-13 0 0)
(-1.5632e-13 0 0)
(-3.12638e-13 0 0)
(-4.33431e-13 0 0)
(-6.82121e-13 0 0)
(-6.18173e-13 0 0)
(-7.24753e-13 0 0)
(-5.68435e-13 0 0)
(-6.82121e-13 0 0)
(-4.76064e-13 0 0)
(-2.06057e-13 0 0)
(1.35003e-13 0 0)
(-4.26324e-14 0 0)
(-1.13687e-13 0 0)
(2.98428e-13 0 0)
(2.41585e-13 0 0)
(-7.10546e-14 0 0)
(1.42109e-14 0 0)
(1.20792e-13 0 0)
(-2.13163e-14 0 0)
(-2.34479e-13 0 0)
(-2.77111e-13 0 0)
(-3.12639e-13 0 0)
(-7.17648e-13 0 0)
(-1.0516e-12 0 0)
(-1.32871e-12 0 0)
(-1.38556e-12 0 0)
(-1.15108e-12 0 0)
(-9.09495e-13 0 0)
(-5.68434e-13 0 0)
(-6.03961e-13 0 0)
(-6.75016e-13 0 0)
(-3.62376e-13 0 0)
(-1.84742e-13 0 0)
(-1.06581e-13 0 0)
(-7.10553e-15 0 0)
(-1.49214e-13 0 0)
(-1.20792e-13 0 0)
(2.84217e-13 0 0)
(2.84217e-13 0 0)
(1.27898e-13 0 0)
(1.56319e-13 0 0)
(-1.13687e-13 0 0)
(-2.55795e-13 0 0)
(-5.68434e-13 0 0)
(-6.32383e-13 0 0)
(-7.17648e-13 0 0)
(-9.23706e-13 0 0)
(-6.25278e-13 0 0)
(-4.47641e-13 0 0)
(-3.69483e-13 0 0)
(-1.06581e-13 0 0)
(-4.97388e-14 0 0)
(-1.56319e-13 0 0)
(-3.55272e-13 0 0)
(-4.83169e-13 0 0)
(-5.32908e-13 0 0)
(-5.54223e-13 0 0)
(-3.41061e-13 0 0)
(-4.47642e-13 0 0)
(-3.19744e-13 0 0)
(-3.12638e-13 0 0)
(-3.33956e-13 0 0)
(-3.2685e-13 0 0)
(-1.13687e-13 0 0)
(-1.49214e-13 0 0)
(-1.63425e-13 0 0)
(7.81598e-14 0 0)
(3.55271e-13 0 0)
(1.91846e-13 0 0)
(-3.55267e-14 0 0)
(3.19743e-13 0 0)
(3.62378e-13 0 0)
(7.10542e-13 0 0)
(5.04486e-13 0 0)
(3.69482e-13 0 0)
(3.55278e-14 0 0)
(2.13156e-14 0 0)
(4.2633e-14 0 0)
(1.49214e-13 0 0)
(2.13167e-14 0 0)
(7.81593e-14 0 0)
(2.13293e-19 0 0)
(9.23706e-14 0 0)
(2.34479e-13 0 0)
(2.55795e-13 0 0)
(-2.13161e-14 0 0)
(2.06057e-13 0 0)
(1.35003e-13 0 0)
(7.10524e-15 0 0)
(7.10542e-14 0 0)
(-3.33955e-13 0 0)
(-6.39491e-14 0 0)
(2.34479e-13 0 0)
(3.76588e-13 0 0)
(4.47642e-13 0 0)
(4.12115e-13 0 0)
(4.0501e-13 0 0)
(5.47118e-13 0 0)
(2.20268e-13 0 0)
(3.83693e-13 0 0)
(2.84218e-13 0 0)
(2.20268e-13 0 0)
(-1.7053e-13 0 0)
(-2.13164e-13 0 0)
(-1.77635e-13 0 0)
(-1.27898e-13 0 0)
(-3.90798e-13 0 0)
(-4.83169e-13 0 0)
(-4.68958e-13 0 0)
(-3.33955e-13 0 0)
(-2.91323e-13 0 0)
(-3.48166e-13 0 0)
(-9.94763e-14 0 0)
(-3.55272e-14 0 0)
(-2.13161e-14 0 0)
(-4.26327e-14 0 0)
(-2.13164e-14 0 0)
(-6.39488e-14 0 0)
(-7.81596e-14 0 0)
(-1.91847e-13 0 0)
(-1.7053e-13 0 0)
(2.84221e-14 0 0)
(6.39485e-14 0 0)
(2.91323e-13 0 0)
(5.40012e-13 0 0)
(6.32383e-13 0 0)
(7.60281e-13 0 0)
(9.80549e-13 0 0)
(1.0516e-12 0 0)
(1.25056e-12 0 0)
(1.84031e-12 0 0)
(2.79954e-12 0 0)
(4.07141e-12 0 0)
(7.14095e-12 0 0)
(1.22355e-11 0 0)
(2.1366e-11 0 0)
(3.73106e-11 0 0)
(6.54765e-11 0 0)
(1.14746e-10 0 0)
(2.00536e-10 0 0)
(3.48457e-10 0 0)
(6.02611e-10 0 0)
(1.03693e-09 0 0)
(1.77481e-09 0 0)
(3.02182e-09 0 0)
(5.11711e-09 0 0)
(8.61913e-09 0 0)
(1.44391e-08 0 0)
(2.40581e-08 0 0)
(3.98653e-08 0 0)
(6.56932e-08 0 0)
(1.0765e-07 0 0)
(1.75411e-07 0 0)
(2.842e-07 0 0)
(4.57818e-07 0 0)
(7.33233e-07 0 0)
(1.16747e-06 0 0)
(1.84793e-06 0 0)
(2.90758e-06 0 0)
(4.54741e-06 0 0)
(7.06896e-06 0 0)
(1.09215e-05 0 0)
(1.67694e-05 0 0)
(2.55881e-05 0 0)
(3.87986e-05 0 0)
(5.84555e-05 0 0)
(8.75064e-05 0 0)
(0.000130146 0 0)
(0.000192298 0 0)
(0.000282255 0 0)
(0.000411533 0 0)
(0.000595984 0 0)
(0.000857242 0 0)
(0.00122457 0 0)
(0.00173719 0 0)
(0.00244717 0 0)
(0.00342301 0 0)
(0.0047539 0 0)
(0.00655484 0 0)
(0.00897258 0 0)
(0.0121924 0 0)
(0.0164456 0 0)
(0.0220181 0 0)
(0.0292584 0 0)
(0.0385872 0 0)
(0.0505056 0 0)
(0.0656026 0 0)
(0.0845619 0 0)
(0.108166 0 0)
(0.137298 0 0)
(0.172938 0 0)
(0.21616 0 0)
(0.268118 0 0)
(0.330033 0 0)
(0.403173 0 0)
(0.488825 0 0)
(0.588273 0 0)
(0.702761 0 0)
(0.833465 0 0)
(0.98146 0 0)
(1.14769 0 0)
(1.33293 0 0)
(1.53779 0 0)
(1.76268 0 0)
(2.00777 0 0)
(2.27304 0 0)
(2.55827 0 0)
(2.863 0 0)
(3.18662 0 0)
(3.52832 0 0)
(3.88719 0 0)
(4.26215 0 0)
(4.65207 0 0)
(5.05575 0 0)
(5.47196 0 0)
(5.89947 0 0)
(6.33706 0 0)
(6.78355 0 0)
(7.23784 0 0)
(7.69886 0 0)
(8.16567 0 0)
(8.63738 0 0)
(9.1132 0 0)
(9.59244 0 0)
(10.0745 0 0)
(10.5588 0 0)
(11.045 0 0)
(11.5327 0 0)
(12.0216 0 0)
(12.5114 0 0)
(13.002 0 0)
(13.4931 0 0)
(13.9847 0 0)
(14.4768 0 0)
(14.9691 0 0)
(15.4618 0 0)
(15.9547 0 0)
(16.4479 0 0)
(16.9413 0 0)
(17.4351 0 0)
(17.9291 0 0)
(18.4234 0 0)
(18.9181 0 0)
(19.4131 0 0)
(19.9086 0 0)
(20.4044 0 0)
(20.9007 0 0)
(21.3976 0 0)
(21.8949 0 0)
(22.3928 0 0)
(22.8913 0 0)
(23.3905 0 0)
(23.8903 0 0)
(24.3909 0 0)
(24.8922 0 0)
(25.3943 0 0)
(25.8972 0 0)
(26.401 0 0)
(26.9057 0 0)
(27.4113 0 0)
(27.9178 0 0)
(28.4254 0 0)
(28.934 0 0)
(29.4436 0 0)
(29.9543 0 0)
(30.4661 0 0)
(30.9791 0 0)
(31.4932 0 0)
(32.0085 0 0)
(32.525 0 0)
(33.0428 0 0)
(33.5618 0 0)
(34.082 0 0)
(34.6036 0 0)
(35.1265 0 0)
(35.6506 0 0)
(36.1761 0 0)
(36.703 0 0)
(37.2312 0 0)
(37.7607 0 0)
(38.2916 0 0)
(38.8239 0 0)
(39.3576 0 0)
(39.8927 0 0)
(40.4292 0 0)
(40.9672 0 0)
(41.5067 0 0)
(42.0476 0 0)
(42.59 0 0)
(43.134 0 0)
(43.6796 0 0)
(44.2268 0 0)
(44.7755 0 0)
(45.3261 0 0)
(45.878 0 0)
(46.4324 0 0)
(46.9874 0 0)
(47.5463 0 0)
(48.1037 0 0)
(48.668 0 0)
(49.2275 0 0)
(49.7978 0 0)
(50.3595 0 0)
(50.9354 0 0)
(51.5009 0 0)
(52.0808 0 0)
(52.652 0 0)
(53.2351 0 0)
(53.8118 0 0)
(54.3998 0 0)
(54.9805 0 0)
(55.5737 0 0)
(56.1588 0 0)
(56.7547 0 0)
(57.3433 0 0)
(57.9383 0 0)
(58.5292 0 0)
(59.1163 0 0)
(59.7005 0 0)
(60.2845 0 0)
(60.8711 0 0)
(61.4605 0 0)
(62.0525 0 0)
(62.6471 0 0)
(63.244 0 0)
(63.8418 0 0)
(64.4401 0 0)
(65.0399 0 0)
(65.6418 0 0)
(66.2456 0 0)
(66.8509 0 0)
(67.4576 0 0)
(68.0658 0 0)
(68.6755 0 0)
(69.2869 0 0)
(69.8997 0 0)
(70.5141 0 0)
(71.1297 0 0)
(71.7474 0 0)
(72.3655 0 0)
(72.9869 0 0)
(73.6066 0 0)
(74.233 0 0)
(74.8521 0 0)
(75.4866 0 0)
(76.1005 0 0)
(76.7494 0 0)
(77.3496 0 0)
(78.0236 0 0)
(78.5967 0 0)
(79.3108 0 0)
(79.8413 0 0)
(80.6091 0 0)
(81.0873 0 0)
(81.9102 0 0)
(82.345 0 0)
(83.2007 0 0)
(83.6263 0 0)
(84.4832 0 0)
(84.9148 0 0)
(85.774 0 0)
(86.2037 0 0)
(87.067 0 0)
(87.4989 0 0)
(88.3638 0 0)
(88.7964 0 0)
(89.6639 0 0)
(90.0976 0 0)
(90.9666 0 0)
(91.401 0 0)
(92.2718 0 0)
(92.7069 0 0)
(93.5788 0 0)
(94.0144 0 0)
(94.8873 0 0)
(95.3231 0 0)
(96.1964 0 0)
(96.6322 0 0)
(97.5055 0 0)
(97.941 0 0)
(98.8139 0 0)
(99.2489 0 0)
(100.121 0 0)
(100.555 0 0)
(101.425 0 0)
(101.858 0 0)
(102.726 0 0)
(103.157 0 0)
(104.022 0 0)
(104.451 0 0)
(105.311 0 0)
(105.738 0 0)
(106.593 0 0)
(107.019 0 0)
(107.863 0 0)
(108.292 0 0)
(109.122 0 0)
(109.551 0 0)
(110.369 0 0)
(110.796 0 0)
(111.598 0 0)
(112.023 0 0)
(112.81 0 0)
(113.231 0 0)
(113.998 0 0)
(114.414 0 0)
(115.162 0 0)
(115.57 0 0)
(116.297 0 0)
(116.696 0 0)
(117.402 0 0)
(117.794 0 0)
(118.485 0 0)
(118.893 0 0)
(120.513 0 0)
)
;

boundaryField
{
    sideLeft
    {
        type            symmetryPlane;
    }
    sideRight
    {
        type            myWaveTransmissive;
        phi             phi.air;
        rho             rho.air;
        psi             thermo:psi.air;
        gamma           1.4;
        fieldInf        (0 0 0);
        lInf            10;
        value           uniform (120.092 0 0);
    }
    topbottom
    {
        type            empty;
    }
    frontback
    {
        type            empty;
    }
}


// ************************************************************************* //
