/*--------------------------------*- C++ -*----------------------------------*\
| =========                 |                                                 |
| \\      /  F ield         | OpenFOAM: The Open Source CFD Toolbox           |
|  \\    /   O peration     | Version:  2.4.0                                 |
|   \\  /    A nd           | Web:      www.OpenFOAM.org                      |
|    \\/     M anipulation  |                                                 |
\*---------------------------------------------------------------------------*/
FoamFile
{
    version     2.0;
    format      ascii;
    class       volVectorField;
    location    "0.07";
    object      U.water;
}
// * * * * * * * * * * * * * * * * * * * * * * * * * * * * * * * * * * * * * //

dimensions      [0 1 -1 0 0 0 0];

internalField   nonuniform List<vector> 
1000
(
(4.26334e-14 0 0)
(4.26323e-14 0 0)
(7.816e-14 0 0)
(2.55795e-13 0 0)
(2.3448e-13 0 0)
(5.1159e-13 0 0)
(2.98428e-13 0 0)
(2.20268e-13 0 0)
(2.06057e-13 0 0)
(-2.27374e-13 0 0)
(-4.12115e-13 0 0)
(-3.4106e-13 0 0)
(-3.90799e-13 0 0)
(-4.47641e-13 0 0)
(-2.62901e-13 0 0)
(-1.27897e-13 0 0)
(1.42105e-14 0 0)
(8.52654e-14 0 0)
(5.18696e-13 0 0)
(7.4607e-13 0 0)
(8.02913e-13 0 0)
(6.60805e-13 0 0)
(6.60805e-13 0 0)
(3.83693e-13 0 0)
(2.98428e-13 0 0)
(4.9738e-13 0 0)
(5.82645e-13 0 0)
(5.82645e-13 0 0)
(3.33956e-13 0 0)
(2.91322e-13 0 0)
(3.33955e-13 0 0)
(4.54747e-13 0 0)
(4.12115e-13 0 0)
(6.39489e-14 0 0)
(9.237e-14 0 0)
(-5.68425e-14 0 0)
(8.52643e-14 0 0)
(2.84223e-14 0 0)
(3.90798e-13 0 0)
(4.12115e-13 0 0)
(3.97903e-13 0 0)
(3.48166e-13 0 0)
(4.1922e-13 0 0)
(3.48166e-13 0 0)
(2.41584e-13 0 0)
(7.10543e-14 0 0)
(5.68434e-14 0 0)
(2.13163e-14 0 0)
(-2.13162e-14 0 0)
(-1.42109e-13 0 0)
(-3.83693e-13 0 0)
(-6.11067e-13 0 0)
(-6.75015e-13 0 0)
(-8.31335e-13 0 0)
(-9.73443e-13 0 0)
(-8.59757e-13 0 0)
(-9.30811e-13 0 0)
(-7.88702e-13 0 0)
(-1.20082e-12 0 0)
(-1.13687e-12 0 0)
(-1.25766e-12 0 0)
(-1.10845e-12 0 0)
(-7.60281e-13 0 0)
(-6.46594e-13 0 0)
(-8.52651e-13 0 0)
(-7.60281e-13 0 0)
(-5.47118e-13 0 0)
(-3.90799e-13 0 0)
(-2.84217e-13 0 0)
(-1.5632e-13 0 0)
(-1.63425e-13 0 0)
(-5.47118e-13 0 0)
(-3.76587e-13 0 0)
(-2.41585e-13 0 0)
(-1.56319e-13 0 0)
(1.42111e-14 0 0)
(-1.35004e-13 0 0)
(-1.06581e-13 0 0)
(-2.13163e-14 0 0)
(1.42109e-13 0 0)
(3.05533e-13 0 0)
(1.06581e-13 0 0)
(3.48166e-13 0 0)
(4.90274e-13 0 0)
(2.27374e-13 0 0)
(1.7053e-13 0 0)
(-7.81594e-14 0 0)
(1.42105e-14 0 0)
(-5.68433e-14 0 0)
(2.13163e-13 0 0)
(2.84215e-14 0 0)
(-3.12639e-13 0 0)
(-1.84741e-13 0 0)
(-3.41061e-13 0 0)
(-5.54223e-13 0 0)
(-5.61329e-13 0 0)
(-1.02318e-12 0 0)
(-1.12976e-12 0 0)
(-1.18661e-12 0 0)
(-1.21503e-12 0 0)
(-1.05871e-12 0 0)
(-7.60281e-13 0 0)
(-5.47118e-13 0 0)
(-4.68958e-13 0 0)
(-4.83169e-13 0 0)
(-3.97904e-13 0 0)
(-2.91323e-13 0 0)
(-3.62377e-13 0 0)
(-5.11591e-13 0 0)
(-3.41061e-13 0 0)
(-5.47118e-13 0 0)
(-5.68434e-13 0 0)
(-4.40536e-13 0 0)
(-1.42109e-13 0 0)
(-6.39487e-14 0 0)
(-2.34479e-13 0 0)
(-2.84217e-13 0 0)
(-2.13163e-13 0 0)
(-4.26325e-14 0 0)
(-1.7053e-13 0 0)
(1.13687e-13 0 0)
(2.13163e-13 0 0)
(3.33955e-13 0 0)
(2.70006e-13 0 0)
(2.27374e-13 0 0)
(9.23707e-14 0 0)
(7.81594e-14 0 0)
(-2.77111e-13 0 0)
(-3.05534e-13 0 0)
(-2.20268e-13 0 0)
(-1.35004e-13 0 0)
(-3.97903e-13 0 0)
(-6.11067e-13 0 0)
(-5.54223e-13 0 0)
(-6.6791e-13 0 0)
(-7.6028e-13 0 0)
(-7.10543e-13 0 0)
(-7.24754e-13 0 0)
(-3.97904e-13 0 0)
(-1.20792e-13 0 0)
(-2.70006e-13 0 0)
(-3.33955e-13 0 0)
(-2.13162e-13 0 0)
(-7.10576e-15 0 0)
(-2.1316e-14 0 0)
(-2.27374e-13 0 0)
(-2.06057e-13 0 0)
(-8.52651e-14 0 0)
(-1.49214e-13 0 0)
(-7.81596e-14 0 0)
(-1.77636e-13 0 0)
(-3.4106e-13 0 0)
(-1.35003e-13 0 0)
(-3.55271e-13 0 0)
(-3.97904e-13 0 0)
(-3.62377e-13 0 0)
(-3.76588e-13 0 0)
(-9.23706e-14 0 0)
(-2.06057e-13 0 0)
(2.13162e-14 0 0)
(9.94764e-14 0 0)
(1.35003e-13 0 0)
(3.83693e-13 0 0)
(4.05009e-13 0 0)
(9.23709e-14 0 0)
(9.23702e-14 0 0)
(7.10569e-15 0 0)
(2.91322e-13 0 0)
(1.49214e-13 0 0)
(2.62901e-13 0 0)
(5.47118e-13 0 0)
(6.6791e-13 0 0)
(5.61329e-13 0 0)
(5.40012e-13 0 0)
(4.68959e-13 0 0)
(4.90274e-13 0 0)
(3.05534e-13 0 0)
(1.49214e-13 0 0)
(-3.5527e-14 0 0)
(-3.5527e-14 0 0)
(-4.26326e-14 0 0)
(-9.9476e-14 0 0)
(-3.55274e-14 0 0)
(-1.35003e-13 0 0)
(-1.63425e-13 0 0)
(-2.41584e-13 0 0)
(-2.70007e-13 0 0)
(-2.48689e-13 0 0)
(8.52645e-14 0 0)
(3.55276e-14 0 0)
(2.06057e-13 0 0)
(7.10546e-14 0 0)
(1.84741e-13 0 0)
(1.42109e-14 0 0)
(-2.84217e-14 0 0)
(-1.91846e-13 0 0)
(-1.63425e-13 0 0)
(1.42108e-14 0 0)
(-1.20792e-13 0 0)
(-4.61853e-13 0 0)
(-5.32907e-13 0 0)
(-5.1159e-13 0 0)
(-2.70007e-13 0 0)
(-3.48166e-13 0 0)
(-1.20792e-13 0 0)
(-6.39488e-14 0 0)
(-1.35003e-13 0 0)
(-2.70006e-13 0 0)
(-5.82645e-13 0 0)
(-5.82645e-13 0 0)
(-8.2423e-13 0 0)
(-6.60805e-13 0 0)
(-4.1922e-13 0 0)
(-3.19744e-13 0 0)
(-3.55271e-13 0 0)
(-3.48166e-13 0 0)
(-4.12115e-13 0 0)
(-3.62377e-13 0 0)
(-3.12639e-13 0 0)
(9.23705e-14 0 0)
(9.23705e-14 0 0)
(-1.42107e-14 0 0)
(3.12639e-13 0 0)
(2.84216e-14 0 0)
(-1.56319e-13 0 0)
(-3.69482e-13 0 0)
(8.5265e-14 0 0)
(1.42112e-14 0 0)
(7.81593e-14 0 0)
(1.77636e-13 0 0)
(-7.1055e-15 0 0)
(-1.42108e-13 0 0)
(-1.77636e-13 0 0)
(-1.49214e-13 0 0)
(-4.12115e-13 0 0)
(-1.49214e-13 0 0)
(-9.94757e-14 0 0)
(-3.73744e-19 0 0)
(-2.06057e-13 0 0)
(-2.70006e-13 0 0)
(-2.13164e-14 0 0)
(2.13163e-13 0 0)
(4.26332e-14 0 0)
(1.06581e-13 0 0)
(-1.13686e-13 0 0)
(-8.52655e-14 0 0)
(-4.97377e-14 0 0)
(-2.84218e-14 0 0)
(5.68436e-14 0 0)
(-1.00469e-19 0 0)
(-1.77636e-13 0 0)
(7.81595e-14 0 0)
(2.70006e-13 0 0)
(2.77112e-13 0 0)
(5.75539e-13 0 0)
(2.98428e-13 0 0)
(7.4607e-13 0 0)
(7.10543e-13 0 0)
(5.25801e-13 0 0)
(6.60805e-13 0 0)
(9.66338e-13 0 0)
(1.34293e-12 0 0)
(1.08002e-12 0 0)
(9.02389e-13 0 0)
(6.6791e-13 0 0)
(8.02913e-13 0 0)
(7.3186e-13 0 0)
(7.03437e-13 0 0)
(5.7554e-13 0 0)
(5.32907e-13 0 0)
(5.18696e-13 0 0)
(1.77635e-13 0 0)
(-7.81595e-14 0 0)
(-5.68434e-14 0 0)
(-2.62901e-13 0 0)
(-4.1922e-13 0 0)
(-6.6791e-13 0 0)
(-5.82646e-13 0 0)
(-6.82121e-13 0 0)
(-6.82121e-13 0 0)
(-6.89226e-13 0 0)
(-6.39489e-13 0 0)
(-5.47118e-13 0 0)
(-1.77635e-13 0 0)
(2.55795e-13 0 0)
(1.13687e-13 0 0)
(-2.13165e-14 0 0)
(1.49214e-13 0 0)
(4.40536e-13 0 0)
(6.11067e-13 0 0)
(5.8975e-13 0 0)
(5.7554e-13 0 0)
(5.82645e-13 0 0)
(3.90799e-13 0 0)
(4.54747e-13 0 0)
(3.41061e-13 0 0)
(3.90799e-13 0 0)
(5.32907e-13 0 0)
(4.47642e-13 0 0)
(3.05534e-13 0 0)
(4.47642e-13 0 0)
(4.05009e-13 0 0)
(5.47118e-13 0 0)
(5.18696e-13 0 0)
(2.91323e-13 0 0)
(1.27897e-13 0 0)
(-4.26323e-14 0 0)
(-1.20793e-13 0 0)
(-2.62901e-13 0 0)
(-4.68958e-13 0 0)
(-5.04485e-13 0 0)
(-3.69482e-13 0 0)
(-2.13163e-13 0 0)
(-9.94757e-14 0 0)
(-1.42109e-13 0 0)
(-3.62377e-13 0 0)
(-3.62377e-13 0 0)
(-3.69482e-13 0 0)
(-4.83169e-13 0 0)
(-4.76064e-13 0 0)
(-4.40536e-13 0 0)
(-6.32383e-13 0 0)
(-5.96856e-13 0 0)
(-4.40536e-13 0 0)
(-2.34479e-13 0 0)
(-1.91846e-13 0 0)
(-2.55795e-13 0 0)
(-1.84741e-13 0 0)
(-4.54747e-13 0 0)
(-6.25278e-13 0 0)
(-5.40013e-13 0 0)
(-4.83169e-13 0 0)
(-2.06057e-13 0 0)
(-1.13687e-13 0 0)
(-1.13687e-13 0 0)
(-1.35003e-13 0 0)
(-1.84741e-13 0 0)
(-1.91846e-13 0 0)
(-1.63425e-13 0 0)
(7.10551e-15 0 0)
(2.55795e-13 0 0)
(9.23707e-14 0 0)
(-1.7053e-13 0 0)
(-2.55795e-13 0 0)
(-1.42109e-13 0 0)
(1.42115e-14 0 0)
(1.13686e-13 0 0)
(-7.81591e-14 0 0)
(1.20792e-13 0 0)
(9.23708e-14 0 0)
(7.10543e-14 0 0)
(4.33431e-13 0 0)
(5.54223e-13 0 0)
(5.7554e-13 0 0)
(8.17124e-13 0 0)
(7.95808e-13 0 0)
(5.18697e-13 0 0)
(2.55795e-13 0 0)
(2.70006e-13 0 0)
(3.33955e-13 0 0)
(4.05009e-13 0 0)
(5.82645e-13 0 0)
(5.32907e-13 0 0)
(5.89751e-13 0 0)
(4.47642e-13 0 0)
(2.62901e-13 0 0)
(4.26329e-14 0 0)
(2.1316e-14 0 0)
(5.68437e-14 0 0)
(2.98428e-13 0 0)
(2.70006e-13 0 0)
(2.70006e-13 0 0)
(1.49214e-13 0 0)
(1.42106e-14 0 0)
(2.84222e-14 0 0)
(4.97376e-14 0 0)
(1.84741e-13 0 0)
(3.83693e-13 0 0)
(2.84221e-14 0 0)
(2.06057e-13 0 0)
(2.70007e-13 0 0)
(2.70006e-13 0 0)
(4.76064e-13 0 0)
(5.89751e-13 0 0)
(5.96856e-13 0 0)
(6.03962e-13 0 0)
(9.80548e-13 0 0)
(8.81074e-13 0 0)
(8.10018e-13 0 0)
(8.31336e-13 0 0)
(7.31859e-13 0 0)
(3.41061e-13 0 0)
(3.83693e-13 0 0)
(4.9738e-13 0 0)
(6.96332e-13 0 0)
(5.82645e-13 0 0)
(9.09495e-13 0 0)
(1.10845e-12 0 0)
(1.4424e-12 0 0)
(1.37135e-12 0 0)
(1.11555e-12 0 0)
(1.18661e-12 0 0)
(1.0516e-12 0 0)
(7.38964e-13 0 0)
(5.04485e-13 0 0)
(5.18696e-13 0 0)
(5.40012e-13 0 0)
(3.55271e-13 0 0)
(2.55796e-13 0 0)
(2.84217e-13 0 0)
(4.26328e-14 0 0)
(1.7053e-13 0 0)
(3.83693e-13 0 0)
(3.83693e-13 0 0)
(7.81596e-14 0 0)
(-4.97378e-14 0 0)
(-4.47642e-13 0 0)
(-6.60805e-13 0 0)
(-8.66861e-13 0 0)
(-5.61329e-13 0 0)
(-6.32383e-13 0 0)
(-6.89227e-13 0 0)
(-7.10542e-13 0 0)
(-3.76588e-13 0 0)
(-1.77636e-13 0 0)
(-7.81596e-14 0 0)
(-7.10557e-15 0 0)
(-1.7053e-13 0 0)
(-2.20268e-13 0 0)
(-3.83693e-13 0 0)
(-4.68959e-13 0 0)
(-7.03437e-13 0 0)
(-4.47642e-13 0 0)
(-2.55796e-13 0 0)
(-4.47642e-13 0 0)
(-3.19744e-13 0 0)
(-4.40537e-13 0 0)
(-4.61852e-13 0 0)
(-3.90799e-13 0 0)
(-7.17648e-13 0 0)
(-5.96857e-13 0 0)
(-5.1159e-13 0 0)
(-3.62377e-13 0 0)
(-3.19744e-13 0 0)
(-2.27374e-13 0 0)
(-1.77636e-13 0 0)
(-2.4869e-13 0 0)
(-3.62377e-13 0 0)
(-6.53699e-13 0 0)
(-5.32907e-13 0 0)
(-2.06057e-13 0 0)
(-4.26326e-13 0 0)
(-1.91847e-13 0 0)
(3.5527e-14 0 0)
(4.97383e-14 0 0)
(3.55271e-13 0 0)
(4.76064e-13 0 0)
(4.19221e-13 0 0)
(1.13686e-13 0 0)
(-2.629e-13 0 0)
(3.05533e-13 0 0)
(2.84218e-13 0 0)
(9.23701e-14 0 0)
(-9.94756e-14 0 0)
(-2.8422e-14 0 0)
(-7.1054e-14 0 0)
(2.55795e-13 0 0)
(3.48166e-13 0 0)
(3.83693e-13 0 0)
(4.54748e-13 0 0)
(4.61853e-13 0 0)
(5.68434e-13 0 0)
(6.96332e-13 0 0)
(5.32907e-13 0 0)
(2.84217e-13 0 0)
(2.84217e-13 0 0)
(5.82645e-13 0 0)
(6.82121e-13 0 0)
(6.18173e-13 0 0)
(7.53175e-13 0 0)
(4.9738e-13 0 0)
(3.90798e-13 0 0)
(2.06058e-13 0 0)
(1.98952e-13 0 0)
(-1.42108e-13 0 0)
(-2.20268e-13 0 0)
(-2.27374e-13 0 0)
(-2.62901e-13 0 0)
(-2.13163e-13 0 0)
(-2.84219e-14 0 0)
(-4.97381e-14 0 0)
(7.10555e-15 0 0)
(2.20268e-13 0 0)
(4.05009e-13 0 0)
(2.77112e-13 0 0)
(2.4869e-13 0 0)
(4.90274e-13 0 0)
(4.54748e-13 0 0)
(5.04485e-13 0 0)
(5.82645e-13 0 0)
(7.17648e-13 0 0)
(6.32383e-13 0 0)
(5.04486e-13 0 0)
(5.61329e-13 0 0)
(4.68959e-13 0 0)
(2.629e-13 0 0)
(1.35004e-13 0 0)
(2.629e-13 0 0)
(-1.06581e-13 0 0)
(-1.5632e-13 0 0)
(-3.26849e-13 0 0)
(-1.35003e-13 0 0)
(-1.7053e-13 0 0)
(-3.33955e-13 0 0)
(-3.55271e-13 0 0)
(-2.70006e-13 0 0)
(-5.32907e-13 0 0)
(-6.6791e-13 0 0)
(-6.32383e-13 0 0)
(-7.10543e-13 0 0)
(-4.83169e-13 0 0)
(-4.1922e-13 0 0)
(-2.13166e-14 0 0)
(-2.77111e-13 0 0)
(5.68432e-14 0 0)
(1.27898e-13 0 0)
(5.68432e-14 0 0)
(7.10546e-14 0 0)
(1.13686e-13 0 0)
(7.81601e-14 0 0)
(-1.06582e-13 0 0)
(-2.13163e-13 0 0)
(-1.98952e-13 0 0)
(2.27374e-13 0 0)
(6.75015e-13 0 0)
(7.31859e-13 0 0)
(3.90798e-13 0 0)
(4.1922e-13 0 0)
(6.25278e-13 0 0)
(9.30811e-13 0 0)
(1.10134e-12 0 0)
(1.23634e-12 0 0)
(1.30029e-12 0 0)
(1.22213e-12 0 0)
(1.23634e-12 0 0)
(1.12976e-12 0 0)
(1.06581e-12 0 0)
(8.73968e-13 0 0)
(7.10543e-13 0 0)
(5.96856e-13 0 0)
(6.96332e-13 0 0)
(3.90799e-13 0 0)
(1.27898e-13 0 0)
(-6.39487e-14 0 0)
(-2.70006e-13 0 0)
(-4.9738e-14 0 0)
(3.97904e-13 0 0)
(1.84741e-13 0 0)
(-1.20792e-13 0 0)
(-1.98952e-13 0 0)
(-1.84741e-13 0 0)
(2.41584e-13 0 0)
(1.63425e-13 0 0)
(-6.39491e-14 0 0)
(-1.7053e-13 0 0)
(-2.4869e-13 0 0)
(-5.68438e-14 0 0)
(-3.55271e-13 0 0)
(-4.68958e-13 0 0)
(-7.03437e-13 0 0)
(-8.66863e-13 0 0)
(-9.66338e-13 0 0)
(-9.30811e-13 0 0)
(-7.38964e-13 0 0)
(-5.47118e-13 0 0)
(-6.18172e-13 0 0)
(-4.61853e-13 0 0)
(-4.47642e-13 0 0)
(-3.69482e-13 0 0)
(-3.05534e-13 0 0)
(-4.05009e-13 0 0)
(-1.13687e-13 0 0)
(-1.35003e-13 0 0)
(1.42106e-14 0 0)
(-8.52648e-14 0 0)
(-1.63425e-13 0 0)
(-3.26849e-13 0 0)
(-4.40537e-13 0 0)
(-6.18172e-13 0 0)
(-5.68435e-13 0 0)
(-7.67386e-13 0 0)
(-6.46594e-13 0 0)
(-6.89226e-13 0 0)
(-4.33431e-13 0 0)
(-1.84741e-13 0 0)
(1.20792e-13 0 0)
(-4.97378e-14 0 0)
(-8.52653e-14 0 0)
(2.20268e-13 0 0)
(2.4869e-13 0 0)
(-3.54158e-19 0 0)
(-1.42108e-14 0 0)
(1.06582e-13 0 0)
(-3.55272e-14 0 0)
(-2.41585e-13 0 0)
(-2.4869e-13 0 0)
(-2.91323e-13 0 0)
(-7.81597e-13 0 0)
(-1.0516e-12 0 0)
(-1.25766e-12 0 0)
(-1.39977e-12 0 0)
(-1.1795e-12 0 0)
(-8.88178e-13 0 0)
(-5.96856e-13 0 0)
(-6.46594e-13 0 0)
(-6.03962e-13 0 0)
(-2.84217e-13 0 0)
(-2.06058e-13 0 0)
(-1.42108e-13 0 0)
(-1.4211e-14 0 0)
(-1.77635e-13 0 0)
(-9.94762e-14 0 0)
(3.12639e-13 0 0)
(2.70006e-13 0 0)
(1.49214e-13 0 0)
(1.42108e-13 0 0)
(-1.35003e-13 0 0)
(-2.62901e-13 0 0)
(-5.32907e-13 0 0)
(-6.18172e-13 0 0)
(-7.67386e-13 0 0)
(-9.02389e-13 0 0)
(-5.68434e-13 0 0)
(-4.05009e-13 0 0)
(-4.12115e-13 0 0)
(-1.77635e-13 0 0)
(-7.81605e-14 0 0)
(-1.49213e-13 0 0)
(-3.55272e-13 0 0)
(-4.83169e-13 0 0)
(-4.9738e-13 0 0)
(-5.32907e-13 0 0)
(-3.62377e-13 0 0)
(-4.54747e-13 0 0)
(-3.19744e-13 0 0)
(-3.4106e-13 0 0)
(-3.05534e-13 0 0)
(-3.05533e-13 0 0)
(-1.84741e-13 0 0)
(-1.42109e-13 0 0)
(-1.06582e-13 0 0)
(6.39489e-14 0 0)
(3.55271e-13 0 0)
(2.06057e-13 0 0)
(-4.26321e-14 0 0)
(3.12638e-13 0 0)
(4.0501e-13 0 0)
(7.03436e-13 0 0)
(4.19221e-13 0 0)
(4.05009e-13 0 0)
(7.10549e-14 0 0)
(2.13156e-14 0 0)
(2.13167e-14 0 0)
(9.94757e-14 0 0)
(4.2633e-14 0 0)
(7.10539e-14 0 0)
(-7.10522e-15 0 0)
(9.23705e-14 0 0)
(2.13163e-13 0 0)
(2.55795e-13 0 0)
(1.73963e-19 0 0)
(2.34479e-13 0 0)
(1.35003e-13 0 0)
(-1.4211e-14 0 0)
(7.81596e-14 0 0)
(-3.12639e-13 0 0)
(-9.94762e-14 0 0)
(2.27374e-13 0 0)
(3.69482e-13 0 0)
(4.83169e-13 0 0)
(4.61853e-13 0 0)
(3.62377e-13 0 0)
(5.68434e-13 0 0)
(2.41585e-13 0 0)
(3.76587e-13 0 0)
(2.77112e-13 0 0)
(1.98951e-13 0 0)
(-1.49213e-13 0 0)
(-1.84742e-13 0 0)
(-1.98951e-13 0 0)
(-1.35004e-13 0 0)
(-3.97903e-13 0 0)
(-4.83169e-13 0 0)
(-4.83169e-13 0 0)
(-4.33431e-13 0 0)
(-3.41061e-13 0 0)
(-2.34479e-13 0 0)
(-5.68437e-14 0 0)
(-7.10543e-14 0 0)
(1.4211e-14 0 0)
(-2.13164e-14 0 0)
(-2.13164e-14 0 0)
(-6.39488e-14 0 0)
(-1.06581e-13 0 0)
(-1.91847e-13 0 0)
(-1.49214e-13 0 0)
(3.65113e-19 0 0)
(8.52648e-14 0 0)
(3.33956e-13 0 0)
(5.68434e-13 0 0)
(6.18173e-13 0 0)
(7.17648e-13 0 0)
(1.00187e-12 0 0)
(1.07292e-12 0 0)
(1.20082e-12 0 0)
(1.75504e-12 0 0)
(2.76401e-12 0 0)
(4.04299e-12 0 0)
(7.08411e-12 0 0)
(1.22284e-11 0 0)
(2.12808e-11 0 0)
(3.70832e-11 0 0)
(6.51212e-11 0 0)
(1.14063e-10 0 0)
(1.99421e-10 0 0)
(3.46617e-10 0 0)
(5.99442e-10 0 0)
(1.03155e-09 0 0)
(1.76578e-09 0 0)
(3.00684e-09 0 0)
(5.09225e-09 0 0)
(8.57828e-09 0 0)
(1.43723e-08 0 0)
(2.39493e-08 0 0)
(3.96891e-08 0 0)
(6.54099e-08 0 0)
(1.07197e-07 0 0)
(1.74691e-07 0 0)
(2.83064e-07 0 0)
(4.56036e-07 0 0)
(7.30454e-07 0 0)
(1.16317e-06 0 0)
(1.8413e-06 0 0)
(2.89745e-06 0 0)
(4.53202e-06 0 0)
(7.04574e-06 0 0)
(1.08867e-05 0 0)
(1.67176e-05 0 0)
(2.55116e-05 0 0)
(3.86863e-05 0 0)
(5.8292e-05 0 0)
(8.727e-05 0 0)
(0.000129807 0 0)
(0.000191815 0 0)
(0.000281572 0 0)
(0.000410575 0 0)
(0.00059465 0 0)
(0.000855401 0 0)
(0.00122205 0 0)
(0.00173376 0 0)
(0.00244256 0 0)
(0.00341685 0 0)
(0.00474575 0 0)
(0.00654414 0 0)
(0.00895866 0 0)
(0.0121745 0 0)
(0.0164228 0 0)
(0.0219891 0 0)
(0.0292222 0 0)
(0.0385423 0 0)
(0.0504505 0 0)
(0.0655356 0 0)
(0.0844815 0 0)
(0.10807 0 0)
(0.137185 0 0)
(0.172807 0 0)
(0.216009 0 0)
(0.267946 0 0)
(0.329841 0 0)
(0.402959 0 0)
(0.48859 0 0)
(0.588018 0 0)
(0.702488 0 0)
(0.833176 0 0)
(0.981158 0 0)
(1.14738 0 0)
(1.33262 0 0)
(1.53748 0 0)
(1.76236 0 0)
(2.00746 0 0)
(2.27274 0 0)
(2.55798 0 0)
(2.86274 0 0)
(3.18637 0 0)
(3.5281 0 0)
(3.88699 0 0)
(4.26198 0 0)
(4.65192 0 0)
(5.05563 0 0)
(5.47187 0 0)
(5.8994 0 0)
(6.33701 0 0)
(6.78353 0 0)
(7.23783 0 0)
(7.69888 0 0)
(8.1657 0 0)
(8.63742 0 0)
(9.11325 0 0)
(9.5925 0 0)
(10.0746 0 0)
(10.5589 0 0)
(11.0451 0 0)
(11.5328 0 0)
(12.0217 0 0)
(12.5115 0 0)
(13.002 0 0)
(13.4932 0 0)
(13.9848 0 0)
(14.4768 0 0)
(14.9692 0 0)
(15.4618 0 0)
(15.9548 0 0)
(16.448 0 0)
(16.9414 0 0)
(17.4352 0 0)
(17.9292 0 0)
(18.4235 0 0)
(18.9182 0 0)
(19.4132 0 0)
(19.9086 0 0)
(20.4045 0 0)
(20.9008 0 0)
(21.3976 0 0)
(21.895 0 0)
(22.3929 0 0)
(22.8914 0 0)
(23.3906 0 0)
(23.8904 0 0)
(24.391 0 0)
(24.8923 0 0)
(25.3944 0 0)
(25.8973 0 0)
(26.4011 0 0)
(26.9057 0 0)
(27.4113 0 0)
(27.9179 0 0)
(28.4254 0 0)
(28.934 0 0)
(29.4436 0 0)
(29.9544 0 0)
(30.4662 0 0)
(30.9791 0 0)
(31.4932 0 0)
(32.0086 0 0)
(32.5251 0 0)
(33.0428 0 0)
(33.5618 0 0)
(34.0821 0 0)
(34.6037 0 0)
(35.1265 0 0)
(35.6507 0 0)
(36.1762 0 0)
(36.703 0 0)
(37.2312 0 0)
(37.7608 0 0)
(38.2917 0 0)
(38.824 0 0)
(39.3577 0 0)
(39.8928 0 0)
(40.4293 0 0)
(40.9673 0 0)
(41.5067 0 0)
(42.0476 0 0)
(42.5901 0 0)
(43.1341 0 0)
(43.6796 0 0)
(44.2268 0 0)
(44.7755 0 0)
(45.3261 0 0)
(45.8781 0 0)
(46.4325 0 0)
(46.9874 0 0)
(47.5463 0 0)
(48.1038 0 0)
(48.668 0 0)
(49.2275 0 0)
(49.7979 0 0)
(50.3596 0 0)
(50.9355 0 0)
(51.501 0 0)
(52.0808 0 0)
(52.652 0 0)
(53.2352 0 0)
(53.8118 0 0)
(54.3998 0 0)
(54.9805 0 0)
(55.5738 0 0)
(56.1589 0 0)
(56.7548 0 0)
(57.3433 0 0)
(57.9383 0 0)
(58.5292 0 0)
(59.1164 0 0)
(59.7005 0 0)
(60.2845 0 0)
(60.8711 0 0)
(61.4606 0 0)
(62.0525 0 0)
(62.6471 0 0)
(63.2441 0 0)
(63.8418 0 0)
(64.4401 0 0)
(65.0399 0 0)
(65.6418 0 0)
(66.2457 0 0)
(66.851 0 0)
(67.4576 0 0)
(68.0658 0 0)
(68.6756 0 0)
(69.2869 0 0)
(69.8997 0 0)
(70.5141 0 0)
(71.1297 0 0)
(71.7474 0 0)
(72.3655 0 0)
(72.9869 0 0)
(73.6066 0 0)
(74.233 0 0)
(74.8521 0 0)
(75.4866 0 0)
(76.1005 0 0)
(76.7494 0 0)
(77.3496 0 0)
(78.0237 0 0)
(78.5968 0 0)
(79.3108 0 0)
(79.8414 0 0)
(80.6091 0 0)
(81.0873 0 0)
(81.9102 0 0)
(82.345 0 0)
(83.2007 0 0)
(83.6263 0 0)
(84.4832 0 0)
(84.9148 0 0)
(85.774 0 0)
(86.2038 0 0)
(87.067 0 0)
(87.4989 0 0)
(88.3638 0 0)
(88.7964 0 0)
(89.664 0 0)
(90.0976 0 0)
(90.9666 0 0)
(91.401 0 0)
(92.2718 0 0)
(92.7069 0 0)
(93.5788 0 0)
(94.0144 0 0)
(94.8873 0 0)
(95.3231 0 0)
(96.1964 0 0)
(96.6322 0 0)
(97.5055 0 0)
(97.941 0 0)
(98.8139 0 0)
(99.2489 0 0)
(100.121 0 0)
(100.555 0 0)
(101.425 0 0)
(101.858 0 0)
(102.726 0 0)
(103.157 0 0)
(104.022 0 0)
(104.451 0 0)
(105.311 0 0)
(105.738 0 0)
(106.593 0 0)
(107.019 0 0)
(107.863 0 0)
(108.292 0 0)
(109.122 0 0)
(109.551 0 0)
(110.369 0 0)
(110.796 0 0)
(111.598 0 0)
(112.023 0 0)
(112.81 0 0)
(113.231 0 0)
(113.998 0 0)
(114.414 0 0)
(115.162 0 0)
(115.57 0 0)
(116.297 0 0)
(116.696 0 0)
(117.402 0 0)
(117.795 0 0)
(118.486 0 0)
(118.896 0 0)
(120.51 0 0)
)
;

boundaryField
{
    sideLeft
    {
        type            symmetryPlane;
    }
    sideRight
    {
        type            zeroGradient;
    }
    topbottom
    {
        type            empty;
    }
    frontback
    {
        type            empty;
    }
}


// ************************************************************************* //
