/*--------------------------------*- C++ -*----------------------------------*\
| =========                 |                                                 |
| \\      /  F ield         | OpenFOAM: The Open Source CFD Toolbox           |
|  \\    /   O peration     | Version:  2.4.0                                 |
|   \\  /    A nd           | Web:      www.OpenFOAM.org                      |
|    \\/     M anipulation  |                                                 |
\*---------------------------------------------------------------------------*/
FoamFile
{
    version     2.0;
    format      ascii;
    class       volVectorField;
    location    "0.07";
    object      U.waterMean;
}
// * * * * * * * * * * * * * * * * * * * * * * * * * * * * * * * * * * * * * //

dimensions      [0 1 -1 0 0 0 0];

internalField   nonuniform List<vector> 
1000
(
(-8.24733e-14 0 0)
(-2.75286e-14 0 0)
(-5.81122e-14 0 0)
(-1.92254e-14 0 0)
(-6.53595e-14 0 0)
(2.563e-14 0 0)
(-3.76891e-14 0 0)
(-1.64446e-15 0 0)
(-1.45559e-14 0 0)
(-7.16639e-15 0 0)
(-1.94486e-14 0 0)
(-5.39402e-14 0 0)
(-1.61415e-15 0 0)
(-6.70852e-14 0 0)
(2.3732e-14 0 0)
(-2.79547e-14 0 0)
(3.44003e-14 0 0)
(-1.03434e-14 0 0)
(4.06023e-14 0 0)
(-4.06631e-14 0 0)
(3.88055e-14 0 0)
(-3.81153e-14 0 0)
(-2.43514e-14 0 0)
(-4.52006e-14 0 0)
(-7.59164e-14 0 0)
(-6.61414e-14 0 0)
(-8.02e-14 0 0)
(-7.16634e-14 0 0)
(-1.27654e-13 0 0)
(-3.40353e-14 0 0)
(-9.5984e-14 0 0)
(-7.78044e-14 0 0)
(-6.28121e-14 0 0)
(-5.82949e-14 0 0)
(-1.32163e-14 0 0)
(-1.28121e-13 0 0)
(1.91234e-14 0 0)
(-8.60566e-14 0 0)
(-2.35515e-15 0 0)
(-7.08511e-14 0 0)
(7.91723e-15 0 0)
(-6.43242e-14 0 0)
(-3.02793e-14 0 0)
(-5.42245e-14 0 0)
(-5.44081e-15 0 0)
(-1.9276e-14 0 0)
(-2.48588e-14 0 0)
(-2.51532e-14 0 0)
(-3.86027e-14 0 0)
(-3.17715e-14 0 0)
(-9.1406e-14 0 0)
(-1.94386e-14 0 0)
(-6.15735e-14 0 0)
(-1.28926e-15 0 0)
(-4.01862e-14 0 0)
(-1.35511e-14 0 0)
(1.52165e-16 0 0)
(-7.87684e-15 0 0)
(-4.51699e-15 0 0)
(2.6158e-14 0 0)
(-1.32363e-14 0 0)
(4.18407e-14 0 0)
(2.15498e-14 0 0)
(2.66048e-14 0 0)
(3.92726e-14 0 0)
(4.34447e-14 0 0)
(5.98784e-14 0 0)
(3.53241e-14 0 0)
(7.82622e-15 0 0)
(2.76704e-14 0 0)
(-4.30993e-14 0 0)
(-2.88076e-14 0 0)
(-7.74997e-14 0 0)
(-3.12843e-14 0 0)
(-6.0721e-14 0 0)
(-9.1e-14 0 0)
(-4.72818e-14 0 0)
(-1.01496e-13 0 0)
(-7.80379e-14 0 0)
(-7.49622e-14 0 0)
(-5.89751e-14 0 0)
(-5.63461e-14 0 0)
(-6.56338e-14 0 0)
(-4.69365e-14 0 0)
(-9.29795e-14 0 0)
(-6.70043e-14 0 0)
(-1.12438e-13 0 0)
(-6.53396e-14 0 0)
(-1.17402e-13 0 0)
(-1.36383e-13 0 0)
(-9.39846e-14 0 0)
(-1.06114e-13 0 0)
(-1.14052e-13 0 0)
(-6.42027e-14 0 0)
(-8.44936e-14 0 0)
(-3.80955e-14 0 0)
(-1.12418e-13 0 0)
(-3.09697e-14 0 0)
(-9.51314e-14 0 0)
(-6.72276e-14 0 0)
(-9.43904e-14 0 0)
(-9.7791e-14 0 0)
(-1.11291e-13 0 0)
(-1.01171e-13 0 0)
(-1.07353e-13 0 0)
(-1.35257e-13 0 0)
(-9.84916e-14 0 0)
(-1.40352e-13 0 0)
(-1.62389e-13 0 0)
(-1.25563e-13 0 0)
(-1.70185e-13 0 0)
(-1.35693e-13 0 0)
(-1.73088e-13 0 0)
(-1.51539e-13 0 0)
(-1.82386e-13 0 0)
(-1.64501e-13 0 0)
(-1.40687e-13 0 0)
(-1.0512e-13 0 0)
(-1.11322e-13 0 0)
(-1.07901e-13 0 0)
(-9.12134e-14 0 0)
(-7.43533e-14 0 0)
(-4.6571e-14 0 0)
(-6.15228e-14 0 0)
(-3.96889e-14 0 0)
(-5.82645e-14 0 0)
(-3.87653e-14 0 0)
(-8.18443e-14 0 0)
(-7.90755e-15 0 0)
(-1.17523e-13 0 0)
(-2.43009e-14 0 0)
(-1.33358e-13 0 0)
(-7.53785e-14 0 0)
(-9.45021e-14 0 0)
(-4.91595e-14 0 0)
(-9.3081e-14 0 0)
(-6.09341e-14 0 0)
(-6.13401e-14 0 0)
(-2.96805e-14 0 0)
(-3.90798e-14 0 0)
(-6.39083e-14 0 0)
(-4.58808e-14 0 0)
(-1.07809e-13 0 0)
(-6.2599e-14 0 0)
(-1.14651e-13 0 0)
(-8.36006e-14 0 0)
(-9.59131e-14 0 0)
(-1.10794e-13 0 0)
(-1.04704e-13 0 0)
(-1.28527e-13 0 0)
(-1.24325e-13 0 0)
(-1.45397e-13 0 0)
(-1.29481e-13 0 0)
(-1.449e-13 0 0)
(-1.23371e-13 0 0)
(-1.36647e-13 0 0)
(-1.24172e-13 0 0)
(-1.28121e-13 0 0)
(-1.4895e-13 0 0)
(-1.43804e-13 0 0)
(-1.77392e-13 0 0)
(-9.56493e-14 0 0)
(-1.38617e-13 0 0)
(-7.40894e-14 0 0)
(-1.03445e-13 0 0)
(-4.16582e-14 0 0)
(-8.64223e-14 0 0)
(-3.98514e-14 0 0)
(-8.4717e-14 0 0)
(-7.68096e-14 0 0)
(-7.20897e-14 0 0)
(-7.14197e-14 0 0)
(-9.64409e-14 0 0)
(-7.19679e-14 0 0)
(-1.26253e-13 0 0)
(-6.21118e-14 0 0)
(-1.18823e-13 0 0)
(-8.58033e-14 0 0)
(-1.30963e-13 0 0)
(-1.38454e-13 0 0)
(-1.06937e-13 0 0)
(-9.29187e-14 0 0)
(-7.73376e-14 0 0)
(-1.44017e-13 0 0)
(-7.25263e-14 0 0)
(-1.30151e-13 0 0)
(-6.59894e-14 0 0)
(-1.76031e-13 0 0)
(-5.91581e-14 0 0)
(-1.40139e-13 0 0)
(-7.33078e-14 0 0)
(-1.19462e-13 0 0)
(-6.72987e-14 0 0)
(-9.48676e-14 0 0)
(-9.32739e-14 0 0)
(-1.04561e-13 0 0)
(-9.49589e-14 0 0)
(-7.60484e-14 0 0)
(-7.37644e-14 0 0)
(-9.12642e-14 0 0)
(-4.57591e-14 0 0)
(-9.75574e-14 0 0)
(-3.7872e-14 0 0)
(-9.08479e-14 0 0)
(-6.20507e-14 0 0)
(-4.74439e-14 0 0)
(-1.97736e-14 0 0)
(-2.60565e-14 0 0)
(-5.13722e-14 0 0)
(-3.2147e-14 0 0)
(-1.01101e-14 0 0)
(4.67942e-15 0 0)
(-1.4627e-14 0 0)
(4.04907e-14 0 0)
(1.72359e-14 0 0)
(7.2323e-14 0 0)
(4.42162e-14 0 0)
(5.0012e-14 0 0)
(5.66811e-14 0 0)
(8.2971e-14 0 0)
(8.59148e-14 0 0)
(7.80075e-14 0 0)
(1.02613e-13 0 0)
(9.24821e-14 0 0)
(5.80516e-14 0 0)
(1.03232e-13 0 0)
(1.03029e-13 0 0)
(6.5837e-14 0 0)
(1.30506e-13 0 0)
(9.35887e-14 0 0)
(9.72022e-14 0 0)
(7.55205e-14 0 0)
(7.33891e-14 0 0)
(1.02389e-13 0 0)
(8.07685e-14 0 0)
(1.28496e-13 0 0)
(7.66068e-14 0 0)
(1.14154e-13 0 0)
(4.99816e-14 0 0)
(5.44074e-14 0 0)
(7.98446e-14 0 0)
(8.05653e-14 0 0)
(1.43431e-14 0 0)
(1.41398e-13 0 0)
(6.0985e-14 0 0)
(1.04998e-13 0 0)
(5.42247e-14 0 0)
(8.03522e-14 0 0)
(7.11254e-14 0 0)
(1.00227e-13 0 0)
(9.04624e-14 0 0)
(1.08023e-13 0 0)
(7.1978e-14 0 0)
(3.38016e-14 0 0)
(8.13164e-14 0 0)
(2.6879e-14 0 0)
(6.83135e-14 0 0)
(1.90325e-14 0 0)
(5.67011e-14 0 0)
(-1.39466e-14 0 0)
(5.80916e-14 0 0)
(-1.33985e-14 0 0)
(2.71223e-14 0 0)
(-2.16716e-14 0 0)
(-3.35781e-14 0 0)
(-5.54235e-15 0 0)
(-7.90528e-14 0 0)
(1.7337e-14 0 0)
(-4.78092e-14 0 0)
(6.18164e-15 0 0)
(-3.96685e-14 0 0)
(-4.4359e-15 0 0)
(-4.4551e-14 0 0)
(-3.32331e-14 0 0)
(-1.2871e-14 0 0)
(4.74025e-15 0 0)
(-3.78616e-14 0 0)
(5.93503e-14 0 0)
(-8.30301e-15 0 0)
(3.86839e-14 0 0)
(3.79532e-14 0 0)
(7.077e-14 0 0)
(5.38591e-14 0 0)
(-6.3844e-15 0 0)
(1.13281e-13 0 0)
(5.17987e-14 0 0)
(9.02185e-14 0 0)
(6.76134e-14 0 0)
(1.02074e-13 0 0)
(7.09833e-14 0 0)
(9.68571e-14 0 0)
(8.86148e-14 0 0)
(1.00389e-13 0 0)
(6.72377e-14 0 0)
(1.08733e-13 0 0)
(8.99649e-14 0 0)
(1.00268e-13 0 0)
(1.45336e-13 0 0)
(1.42718e-13 0 0)
(1.10743e-13 0 0)
(1.74144e-13 0 0)
(1.65191e-13 0 0)
(1.65627e-13 0 0)
(2.09356e-13 0 0)
(1.46819e-13 0 0)
(2.1836e-13 0 0)
(1.54706e-13 0 0)
(1.83543e-13 0 0)
(1.58126e-13 0 0)
(1.2401e-13 0 0)
(1.23563e-13 0 0)
(1.02978e-13 0 0)
(1.12814e-13 0 0)
(8.41893e-14 0 0)
(1.30293e-13 0 0)
(1.2264e-13 0 0)
(1.28141e-13 0 0)
(1.20762e-13 0 0)
(1.10916e-13 0 0)
(1.48361e-13 0 0)
(1.1392e-13 0 0)
(9.64919e-14 0 0)
(1.274e-13 0 0)
(7.6079e-14 0 0)
(1.22061e-13 0 0)
(6.51061e-14 0 0)
(5.39303e-14 0 0)
(6.86079e-14 0 0)
(4.75049e-14 0 0)
(4.06735e-14 0 0)
(5.57878e-14 0 0)
(5.18493e-14 0 0)
(6.10068e-15 0 0)
(7.42718e-14 0 0)
(1.69822e-14 0 0)
(5.26206e-14 0 0)
(6.38478e-15 0 0)
(-2.18136e-14 0 0)
(5.90763e-15 0 0)
(3.65418e-15 0 0)
(3.26951e-14 0 0)
(-5.58345e-16 0 0)
(1.38555e-14 0 0)
(-3.56183e-14 0 0)
(1.00286e-14 0 0)
(-8.96499e-14 0 0)
(-9.03704e-16 0 0)
(-9.68467e-14 0 0)
(-3.61973e-14 0 0)
(-9.15381e-14 0 0)
(-8.23926e-14 0 0)
(-7.15516e-14 0 0)
(-7.48912e-14 0 0)
(-7.47084e-14 0 0)
(-3.90698e-14 0 0)
(-3.9892e-14 0 0)
(-7.70835e-14 0 0)
(-2.43008e-14 0 0)
(-4.95348e-14 0 0)
(-2.66353e-14 0 0)
(-2.87871e-14 0 0)
(-3.96382e-14 0 0)
(-7.16226e-14 0 0)
(-4.70683e-14 0 0)
(-2.7894e-14 0 0)
(-2.57928e-14 0 0)
(-8.17833e-14 0 0)
(-3.87653e-14 0 0)
(-7.53377e-14 0 0)
(-4.20743e-14 0 0)
(-4.78703e-14 0 0)
(-2.2839e-14 0 0)
(-6.40198e-14 0 0)
(-3.09189e-14 0 0)
(-7.79768e-14 0 0)
(-2.13354e-16 0 0)
(-2.79446e-14 0 0)
(1.68803e-14 0 0)
(-4.08865e-14 0 0)
(3.12738e-14 0 0)
(-6.01624e-14 0 0)
(-1.63444e-15 0 0)
(-5.42042e-14 0 0)
(-7.63224e-14 0 0)
(-5.45902e-14 0 0)
(-1.44423e-13 0 0)
(-9.13588e-15 0 0)
(-1.18945e-13 0 0)
(-2.76607e-14 0 0)
(-1.18163e-13 0 0)
(-6.37155e-14 0 0)
(-7.37645e-14 0 0)
(-5.91984e-14 0 0)
(-1.03394e-13 0 0)
(-4.26734e-14 0 0)
(-8.08596e-14 0 0)
(-4.28153e-14 0 0)
(-6.12283e-14 0 0)
(-2.73066e-15 0 0)
(-3.26038e-14 0 0)
(-9.66341e-15 0 0)
(-3.19643e-14 0 0)
(-6.93995e-14 0 0)
(-2.4453e-14 0 0)
(-5.47117e-14 0 0)
(-4.39318e-14 0 0)
(-2.82188e-14 0 0)
(-3.38827e-14 0 0)
(-6.72275e-14 0 0)
(-2.70413e-14 0 0)
(-6.37051e-14 0 0)
(-3.26242e-14 0 0)
(-8.4656e-14 0 0)
(-5.86604e-14 0 0)
(-5.94522e-14 0 0)
(-8.98836e-14 0 0)
(-6.18072e-14 0 0)
(-3.98616e-14 0 0)
(-1.3078e-13 0 0)
(-2.09134e-15 0 0)
(-7.3135e-14 0 0)
(-3.02895e-14 0 0)
(-5.6224e-14 0 0)
(1.2414e-14 0 0)
(-2.99036e-14 0 0)
(-2.42193e-14 0 0)
(4.80119e-15 0 0)
(-1.54594e-14 0 0)
(-1.96931e-15 0 0)
(-3.14769e-14 0 0)
(1.84536e-14 0 0)
(-2.31838e-14 0 0)
(-4.08054e-14 0 0)
(4.50674e-15 0 0)
(-1.16936e-14 0 0)
(-3.79023e-14 0 0)
(-2.93455e-14 0 0)
(-8.11235e-14 0 0)
(-3.91206e-14 0 0)
(-1.23614e-13 0 0)
(-2.08699e-14 0 0)
(-9.76081e-14 0 0)
(-6.79887e-14 0 0)
(-6.05484e-14 0 0)
(-5.81021e-14 0 0)
(-4.27139e-14 0 0)
(-6.21622e-14 0 0)
(-2.27273e-14 0 0)
(-4.88346e-14 0 0)
(-3.14567e-14 0 0)
(-6.05991e-14 0 0)
(-5.83355e-14 0 0)
(-2.19762e-14 0 0)
(-1.57843e-14 0 0)
(-4.39723e-14 0 0)
(-8.53681e-15 0 0)
(-2.59551e-14 0 0)
(-5.79701e-14 0 0)
(-1.55204e-14 0 0)
(-1.04815e-13 0 0)
(-1.9898e-15 0 0)
(-9.18933e-14 0 0)
(-3.11524e-14 0 0)
(-1.00846e-13 0 0)
(-6.9877e-14 0 0)
(-1.3143e-13 0 0)
(-1.03425e-13 0 0)
(-1.32212e-13 0 0)
(-7.45259e-14 0 0)
(-1.17239e-13 0 0)
(-9.6502e-14 0 0)
(-1.27197e-13 0 0)
(-8.95488e-14 0 0)
(-9.75068e-14 0 0)
(-1.27004e-13 0 0)
(-1.01699e-13 0 0)
(-1.32963e-13 0 0)
(-7.87385e-14 0 0)
(-1.28101e-13 0 0)
(-6.76133e-14 0 0)
(-6.66083e-14 0 0)
(-4.69568e-14 0 0)
(-9.99935e-14 0 0)
(-2.07378e-14 0 0)
(-5.46509e-14 0 0)
(-6.19389e-14 0 0)
(-6.9075e-14 0 0)
(-7.32163e-14 0 0)
(-9.46544e-14 0 0)
(-5.10069e-14 0 0)
(-4.64188e-14 0 0)
(-6.90952e-14 0 0)
(-5.42753e-14 0 0)
(-5.6681e-14 0 0)
(-4.0572e-14 0 0)
(-2.40164e-14 0 0)
(-3.29793e-14 0 0)
(-5.00628e-14 0 0)
(-3.51617e-14 0 0)
(-2.68789e-14 0 0)
(-1.82716e-15 0 0)
(-2.07986e-14 0 0)
(-3.5385e-14 0 0)
(-2.99442e-15 0 0)
(-3.7202e-14 0 0)
(7.87675e-15 0 0)
(-6.36137e-14 0 0)
(1.33783e-14 0 0)
(-6.39994e-14 0 0)
(1.34595e-14 0 0)
(-4.89969e-14 0 0)
(-5.99906e-15 0 0)
(-1.88497e-14 0 0)
(-1.6038e-14 0 0)
(-1.25562e-14 0 0)
(2.25038e-14 0 0)
(1.69719e-14 0 0)
(6.30961e-14 0 0)
(7.16227e-14 0 0)
(4.15364e-14 0 0)
(7.17343e-14 0 0)
(2.8777e-14 0 0)
(7.46374e-14 0 0)
(4.02269e-14 0 0)
(1.06683e-13 0 0)
(7.32367e-14 0 0)
(1.02907e-13 0 0)
(7.69925e-14 0 0)
(1.39307e-13 0 0)
(5.67421e-14 0 0)
(1.09677e-13 0 0)
(6.60299e-14 0 0)
(8.18036e-14 0 0)
(7.57237e-14 0 0)
(1.06865e-13 0 0)
(8.15806e-14 0 0)
(9.81461e-14 0 0)
(9.14265e-14 0 0)
(6.48117e-14 0 0)
(9.88973e-14 0 0)
(5.52702e-14 0 0)
(6.60093e-14 0 0)
(2.37425e-14 0 0)
(6.41213e-14 0 0)
(4.08258e-14 0 0)
(2.58739e-14 0 0)
(4.76164e-14 0 0)
(2.25039e-14 0 0)
(2.11032e-14 0 0)
(-9.7448e-16 0 0)
(2.24734e-14 0 0)
(-5.7858e-15 0 0)
(2.05245e-14 0 0)
(1.27492e-14 0 0)
(4.56066e-14 0 0)
(2.95282e-14 0 0)
(2.82796e-14 0 0)
(2.82493e-14 0 0)
(5.38082e-14 0 0)
(4.21352e-14 0 0)
(1.6505e-14 0 0)
(7.17444e-14 0 0)
(3.97093e-14 0 0)
(7.39369e-14 0 0)
(3.88362e-14 0 0)
(1.0303e-14 0 0)
(9.10102e-14 0 0)
(4.81546e-14 0 0)
(8.88686e-14 0 0)
(6.64865e-14 0 0)
(1.2202e-13 0 0)
(6.44666e-14 0 0)
(7.26783e-14 0 0)
(4.97685e-14 0 0)
(8.95385e-14 0 0)
(7.33991e-14 0 0)
(8.83407e-14 0 0)
(8.627e-14 0 0)
(5.03065e-14 0 0)
(9.04622e-14 0 0)
(4.72511e-14 0 0)
(7.06381e-14 0 0)
(4.85403e-14 0 0)
(7.32467e-14 0 0)
(9.12551e-15 0 0)
(5.42143e-14 0 0)
(-4.18188e-15 0 0)
(4.80731e-14 0 0)
(-2.59854e-14 0 0)
(3.26341e-14 0 0)
(-3.25934e-14 0 0)
(5.15142e-14 0 0)
(-1.20283e-14 0 0)
(3.47658e-14 0 0)
(-1.16123e-14 0 0)
(1.97734e-14 0 0)
(1.68501e-14 0 0)
(6.12791e-14 0 0)
(5.42042e-14 0 0)
(2.59552e-14 0 0)
(7.90427e-14 0 0)
(5.2296e-14 0 0)
(4.36071e-14 0 0)
(4.92304e-14 0 0)
(5.30267e-14 0 0)
(9.32859e-15 0 0)
(5.55948e-14 0 0)
(5.82654e-15 0 0)
(2.95788e-14 0 0)
(1.08917e-14 0 0)
(4.73322e-14 0 0)
(2.35494e-14 0 0)
(2.27382e-15 0 0)
(3.76181e-14 0 0)
(1.6576e-14 0 0)
(4.32516e-14 0 0)
(-2.49803e-14 0 0)
(8.38436e-14 0 0)
(-7.40973e-15 0 0)
(1.97531e-14 0 0)
(-1.00439e-17 0 0)
(3.97801e-14 0 0)
(1.85148e-14 0 0)
(6.24465e-14 0 0)
(2.48589e-14 0 0)
(6.84048e-14 0 0)
(3.21877e-14 0 0)
(3.85723e-14 0 0)
(2.72139e-14 0 0)
(4.82254e-14 0 0)
(4.96872e-14 0 0)
(4.51804e-14 0 0)
(5.63052e-14 0 0)
(-1.01503e-14 0 0)
(4.67433e-14 0 0)
(-4.923e-14 0 0)
(9.56183e-14 0 0)
(5.03495e-15 0 0)
(6.08629e-14 0 0)
(1.31249e-14 0 0)
(7.84945e-14 0 0)
(1.86164e-14 0 0)
(7.62411e-14 0 0)
(4.0166e-14 0 0)
(5.71378e-14 0 0)
(2.34582e-14 0 0)
(8.30217e-14 0 0)
(4.54544e-14 0 0)
(4.51094e-14 0 0)
(4.63578e-14 0 0)
(5.69956e-14 0 0)
(5.19813e-14 0 0)
(4.97075e-14 0 0)
(6.54917e-14 0 0)
(1.99766e-14 0 0)
(9.69786e-14 0 0)
(-3.5882e-14 0 0)
(1.21776e-13 0 0)
(-1.21782e-15 0 0)
(8.5742e-14 0 0)
(9.54417e-16 0 0)
(1.09017e-13 0 0)
(2.80767e-14 0 0)
(6.16041e-14 0 0)
(5.42045e-15 0 0)
(6.41112e-14 0 0)
(5.48136e-15 0 0)
(6.66897e-15 0 0)
(-4.56772e-15 0 0)
(3.84808e-14 0 0)
(3.1671e-15 0 0)
(9.07461e-15 0 0)
(1.78347e-14 0 0)
(4.9007e-14 0 0)
(3.71716e-14 0 0)
(2.39559e-15 0 0)
(3.21774e-14 0 0)
(1.14093e-14 0 0)
(1.59263e-14 0 0)
(-2.1164e-14 0 0)
(-6.33402e-15 0 0)
(-4.52107e-14 0 0)
(-3.16702e-15 0 0)
(-4.19525e-14 0 0)
(-6.14128e-15 0 0)
(-1.10997e-13 0 0)
(-4.5475e-14 0 0)
(-1.4627e-13 0 0)
(-3.05131e-14 0 0)
(-1.3212e-13 0 0)
(-6.15638e-14 0 0)
(-1.43672e-13 0 0)
(-9.44109e-14 0 0)
(-1.01141e-13 0 0)
(-7.15314e-14 0 0)
(-7.92763e-14 0 0)
(-9.52532e-14 0 0)
(-2.70616e-14 0 0)
(-4.1922e-14 0 0)
(-5.98276e-14 0 0)
(-3.34565e-14 0 0)
(-2.16615e-14 0 0)
(-4.35562e-14 0 0)
(-4.70074e-14 0 0)
(-3.24921e-14 0 0)
(-2.79041e-14 0 0)
(-7.87177e-14 0 0)
(-2.49403e-14 0 0)
(-7.95197e-14 0 0)
(-4.35487e-15 0 0)
(-8.47066e-14 0 0)
(-4.98193e-14 0 0)
(-5.49757e-14 0 0)
(-7.96416e-14 0 0)
(-2.87466e-14 0 0)
(-3.19034e-14 0 0)
(2.84824e-14 0 0)
(-5.53002e-14 0 0)
(1.0316e-13 0 0)
(5.5311e-14 0 0)
(2.2037e-13 0 0)
(2.9387e-13 0 0)
(5.56477e-13 0 0)
(9.58796e-13 0 0)
(1.64809e-12 0 0)
(2.89464e-12 0 0)
(4.95548e-12 0 0)
(8.65988e-12 0 0)
(1.48696e-11 0 0)
(2.55747e-11 0 0)
(4.37082e-11 0 0)
(7.43986e-11 0 0)
(1.25916e-10 0 0)
(2.121e-10 0 0)
(3.55301e-10 0 0)
(5.92031e-10 0 0)
(9.81254e-10 0 0)
(1.61742e-09 0 0)
(2.65152e-09 0 0)
(4.32279e-09 0 0)
(7.00819e-09 0 0)
(1.12982e-08 0 0)
(1.81112e-08 0 0)
(2.88671e-08 0 0)
(4.57459e-08 0 0)
(7.20739e-08 0 0)
(1.12891e-07 0 0)
(1.7578e-07 0 0)
(2.72078e-07 0 0)
(4.18607e-07 0 0)
(6.40159e-07 0 0)
(9.73007e-07 0 0)
(1.46983e-06 0 0)
(2.2066e-06 0 0)
(3.292e-06 0 0)
(4.88039e-06 0 0)
(7.18931e-06 0 0)
(1.05229e-05 0 0)
(1.5303e-05 0 0)
(2.211e-05 0 0)
(3.17361e-05 0 0)
(4.5253e-05 0 0)
(6.4099e-05 0 0)
(9.01871e-05 0 0)
(0.00012604 0 0)
(0.000174953 0 0)
(0.000241197 0 0)
(0.000330246 0 0)
(0.000449061 0 0)
(0.000606405 0 0)
(0.000813197 0 0)
(0.00108292 0 0)
(0.00143204 0 0)
(0.00188048 0 0)
(0.00245209 0 0)
(0.0031751 0 0)
(0.0040826 0 0)
(0.00521297 0 0)
(0.00661019 0 0)
(0.00832418 0 0)
(0.0104109 0 0)
(0.0129326 0 0)
(0.0159573 0 0)
(0.0195592 0 0)
(0.0238176 0 0)
(0.028817 0 0)
(0.034646 0 0)
(0.0413967 0 0)
(0.0491637 0 0)
(0.0580433 0 0)
(0.0681326 0 0)
(0.0795279 0 0)
(0.0923246 0 0)
(0.106616 0 0)
(0.122491 0 0)
(0.140036 0 0)
(0.159333 0 0)
(0.180458 0 0)
(0.203483 0 0)
(0.228472 0 0)
(0.255487 0 0)
(0.284581 0 0)
(0.315803 0 0)
(0.349197 0 0)
(0.384801 0 0)
(0.422648 0 0)
(0.462769 0 0)
(0.505188 0 0)
(0.549928 0 0)
(0.597008 0 0)
(0.646444 0 0)
(0.69825 0 0)
(0.752439 0 0)
(0.80902 0 0)
(0.868004 0 0)
(0.929399 0 0)
(0.993212 0 0)
(1.05945 0 0)
(1.12812 0 0)
(1.19923 0 0)
(1.27278 0 0)
(1.34878 0 0)
(1.42724 0 0)
(1.50816 0 0)
(1.59155 0 0)
(1.67742 0 0)
(1.76576 0 0)
(1.85659 0 0)
(1.94991 0 0)
(2.04574 0 0)
(2.14407 0 0)
(2.24492 0 0)
(2.34828 0 0)
(2.45418 0 0)
(2.56262 0 0)
(2.6736 0 0)
(2.78713 0 0)
(2.90323 0 0)
(3.0219 0 0)
(3.14316 0 0)
(3.267 0 0)
(3.39345 0 0)
(3.5225 0 0)
(3.65418 0 0)
(3.78848 0 0)
(3.92543 0 0)
(4.06503 0 0)
(4.2073 0 0)
(4.35224 0 0)
(4.49988 0 0)
(4.65021 0 0)
(4.80325 0 0)
(4.95901 0 0)
(5.11752 0 0)
(5.27877 0 0)
(5.44279 0 0)
(5.60958 0 0)
(5.77916 0 0)
(5.95155 0 0)
(6.12676 0 0)
(6.30479 0 0)
(6.48567 0 0)
(6.66942 0 0)
(6.85603 0 0)
(7.04554 0 0)
(7.23795 0 0)
(7.43329 0 0)
(7.63156 0 0)
(7.83278 0 0)
(8.03696 0 0)
(8.24413 0 0)
(8.4543 0 0)
(8.66748 0 0)
(8.8837 0 0)
(9.10296 0 0)
(9.32529 0 0)
(9.55071 0 0)
(9.77923 0 0)
(10.0109 0 0)
(10.2456 0 0)
(10.4836 0 0)
(10.7247 0 0)
(10.969 0 0)
(11.2165 0 0)
(11.4674 0 0)
(11.7212 0 0)
(11.9788 0 0)
(12.2391 0 0)
(12.5035 0 0)
(12.7702 0 0)
(13.0415 0 0)
(13.3148 0 0)
(13.5932 0 0)
(13.8732 0 0)
(14.1586 0 0)
(14.4454 0 0)
(14.738 0 0)
(15.0315 0 0)
(15.3313 0 0)
(15.6312 0 0)
(15.9373 0 0)
(16.2453 0 0)
(16.5556 0 0)
(16.8688 0 0)
(17.1856 0 0)
(17.5061 0 0)
(17.8305 0 0)
(18.1585 0 0)
(18.4902 0 0)
(18.8255 0 0)
(19.1643 0 0)
(19.5067 0 0)
(19.8529 0 0)
(20.2027 0 0)
(20.5563 0 0)
(20.9136 0 0)
(21.2746 0 0)
(21.6394 0 0)
(22.0079 0 0)
(22.3803 0 0)
(22.7565 0 0)
(23.1365 0 0)
(23.5204 0 0)
(23.9081 0 0)
(24.2998 0 0)
(24.6953 0 0)
(25.0948 0 0)
(25.4983 0 0)
(25.9056 0 0)
(26.3172 0 0)
(26.7323 0 0)
(27.1522 0 0)
(27.575 0 0)
(28.0036 0 0)
(28.4336 0 0)
(28.8716 0 0)
(29.3083 0 0)
(29.7567 0 0)
(30.199 0 0)
(30.659 0 0)
(31.106 0 0)
(31.5785 0 0)
(32.0296 0 0)
(32.515 0 0)
(32.9702 0 0)
(33.4687 0 0)
(33.928 0 0)
(34.4397 0 0)
(34.9031 0 0)
(35.4282 0 0)
(35.8956 0 0)
(36.4344 0 0)
(36.9058 0 0)
(37.4582 0 0)
(37.9336 0 0)
(38.5001 0 0)
(38.9794 0 0)
(39.5599 0 0)
(40.0431 0 0)
(40.638 0 0)
(41.125 0 0)
(41.7343 0 0)
(42.2251 0 0)
(42.8491 0 0)
(43.3435 0 0)
(43.9824 0 0)
(44.4803 0 0)
(45.1343 0 0)
(45.6356 0 0)
(46.3048 0 0)
(46.8094 0 0)
(47.4941 0 0)
(48.0018 0 0)
(48.7022 0 0)
(49.2128 0 0)
(49.9291 0 0)
(50.4423 0 0)
(51.1747 0 0)
(51.6902 0 0)
(52.439 0 0)
(52.9567 0 0)
(53.7218 0 0)
(54.2414 0 0)
(55.0231 0 0)
(55.5443 0 0)
(56.3425 0 0)
(56.865 0 0)
(57.6799 0 0)
(58.2031 0 0)
(59.0348 0 0)
(59.5579 0 0)
(60.4063 0 0)
(60.9282 0 0)
(61.793 0 0)
(62.3108 0 0)
(63.1912 0 0)
(63.6965 0 0)
(64.5893 0 0)
(65.0546 0 0)
(66.5788 0 0)
)
;

boundaryField
{
    sideLeft
    {
        type            symmetryPlane;
    }
    sideRight
    {
        type            calculated;
        value           uniform (66.5788 0 0);
    }
    topbottom
    {
        type            empty;
    }
    frontback
    {
        type            empty;
    }
}


// ************************************************************************* //
