/*--------------------------------*- C++ -*----------------------------------*\
| =========                 |                                                 |
| \\      /  F ield         | OpenFOAM: The Open Source CFD Toolbox           |
|  \\    /   O peration     | Version:  2.4.0                                 |
|   \\  /    A nd           | Web:      www.OpenFOAM.org                      |
|    \\/     M anipulation  |                                                 |
\*---------------------------------------------------------------------------*/
FoamFile
{
    version     2.0;
    format      ascii;
    class       volVectorField;
    location    "0.07";
    object      Ur;
}
// * * * * * * * * * * * * * * * * * * * * * * * * * * * * * * * * * * * * * //

dimensions      [0 1 -1 0 0 0 0];

internalField   nonuniform List<vector> 
1000
(
(-2.84217e-14 0 0)
(1.317e-21 0 0)
(-1.42109e-14 0 0)
(-4.9738e-14 0 0)
(7.10542e-15 0 0)
(1.42109e-14 0 0)
(-1.42109e-14 0 0)
(-3.55271e-14 0 0)
(-4.9738e-14 0 0)
(2.84217e-14 0 0)
(2.84217e-14 0 0)
(2.84217e-14 0 0)
(6.39488e-14 0 0)
(2.92441e-21 0 0)
(-7.10543e-14 0 0)
(-6.39488e-14 0 0)
(-1.3708e-21 0 0)
(-2.47427e-21 0 0)
(-2.13163e-14 0 0)
(-3.55271e-14 0 0)
(-2.30752e-22 0 0)
(4.26326e-14 0 0)
(1.42109e-14 0 0)
(2.84217e-14 0 0)
(5.68434e-14 0 0)
(7.10543e-15 0 0)
(-4.9738e-14 0 0)
(-4.9738e-14 0 0)
(3.5592e-23 0 0)
(1.42109e-14 0 0)
(-2.84217e-14 0 0)
(-3.55271e-14 0 0)
(-1.42109e-14 0 0)
(-1.42109e-14 0 0)
(5.68434e-14 0 0)
(4.9738e-14 0 0)
(-4.26326e-14 0 0)
(-4.9738e-14 0 0)
(-7.10543e-15 0 0)
(7.10543e-15 0 0)
(4.26326e-14 0 0)
(5.68434e-14 0 0)
(-7.10543e-14 0 0)
(-4.9738e-14 0 0)
(9.23706e-14 0 0)
(4.9738e-14 0 0)
(7.10543e-15 0 0)
(4.9738e-14 0 0)
(-3.55271e-14 0 0)
(-6.39488e-14 0 0)
(7.10543e-15 0 0)
(-3.55271e-14 0 0)
(-2.84217e-14 0 0)
(2.13163e-14 0 0)
(1.42109e-14 0 0)
(1.15225e-21 0 0)
(-7.10543e-15 0 0)
(8.17081e-23 0 0)
(-2.84217e-14 0 0)
(-5.68434e-14 0 0)
(3.55271e-14 0 0)
(7.81597e-14 0 0)
(-7.10543e-15 0 0)
(-3.55271e-14 0 0)
(-5.68434e-14 0 0)
(2.84217e-14 0 0)
(4.9738e-14 0 0)
(-1.42109e-14 0 0)
(7.10543e-15 0 0)
(-4.26326e-14 0 0)
(-1.42109e-14 0 0)
(6.39488e-14 0 0)
(-7.10543e-15 0 0)
(-1.42109e-14 0 0)
(2.84217e-14 0 0)
(1.42109e-14 0 0)
(2.13163e-14 0 0)
(7.10543e-15 0 0)
(-2.13163e-14 0 0)
(-2.2776e-21 0 0)
(2.84217e-14 0 0)
(2.84217e-14 0 0)
(-5.68434e-14 0 0)
(-4.26326e-14 0 0)
(7.10543e-15 0 0)
(1.1459e-21 0 0)
(-7.10543e-15 0 0)
(-2.13163e-14 0 0)
(-1.0124e-21 0 0)
(-1.42109e-14 0 0)
(8.6753e-22 0 0)
(4.9738e-14 0 0)
(-7.10543e-15 0 0)
(3.55271e-14 0 0)
(8.52651e-14 0 0)
(-1.42109e-14 0 0)
(-8.52651e-14 0 0)
(-7.10543e-14 0 0)
(7.10543e-15 0 0)
(7.81597e-14 0 0)
(5.68434e-14 0 0)
(-9.23706e-14 0 0)
(-2.13163e-14 0 0)
(6.39488e-14 0 0)
(-1.42109e-14 0 0)
(2.84217e-14 0 0)
(-1.01592e-22 0 0)
(7.10543e-15 0 0)
(3.55271e-14 0 0)
(-6.39488e-14 0 0)
(1.42109e-14 0 0)
(1.42109e-14 0 0)
(-4.26326e-14 0 0)
(1.42109e-14 0 0)
(1.42109e-14 0 0)
(4.9738e-14 0 0)
(-2.48462e-22 0 0)
(-4.9738e-14 0 0)
(1.42109e-14 0 0)
(-7.10543e-15 0 0)
(-1.42109e-14 0 0)
(-2.13163e-14 0 0)
(7.10543e-15 0 0)
(6.39488e-14 0 0)
(-3.55271e-14 0 0)
(-7.10543e-14 0 0)
(7.10543e-15 0 0)
(-7.10543e-15 0 0)
(-1.83248e-21 0 0)
(2.84217e-14 0 0)
(-2.13163e-14 0 0)
(-2.84217e-14 0 0)
(7.10543e-15 0 0)
(-3.55271e-14 0 0)
(3.55271e-14 0 0)
(4.26326e-14 0 0)
(-7.81597e-14 0 0)
(1.42109e-14 0 0)
(7.81597e-14 0 0)
(-7.10543e-15 0 0)
(-6.16227e-22 0 0)
(-7.10543e-15 0 0)
(-7.10543e-15 0 0)
(-3.55271e-14 0 0)
(-4.26326e-14 0 0)
(-7.10543e-15 0 0)
(1.42109e-14 0 0)
(4.9738e-14 0 0)
(2.13163e-14 0 0)
(-7.10543e-15 0 0)
(1.42109e-14 0 0)
(3.55271e-14 0 0)
(-7.10543e-15 0 0)
(-7.10543e-15 0 0)
(6.17733e-22 0 0)
(-2.84217e-14 0 0)
(2.13163e-14 0 0)
(2.13163e-14 0 0)
(-7.10543e-15 0 0)
(7.10543e-15 0 0)
(2.84217e-14 0 0)
(-7.10542e-15 0 0)
(-3.55271e-14 0 0)
(2.13163e-14 0 0)
(2.84554e-21 0 0)
(-7.10542e-15 0 0)
(-2.13163e-14 0 0)
(-4.26326e-14 0 0)
(4.9738e-14 0 0)
(9.23706e-14 0 0)
(2.13163e-14 0 0)
(-1.42109e-14 0 0)
(3.9333e-22 0 0)
(-7.10543e-15 0 0)
(-8.38457e-22 0 0)
(-1.42109e-14 0 0)
(6.05533e-22 0 0)
(2.84217e-14 0 0)
(-5.11298e-23 0 0)
(-3.55271e-14 0 0)
(4.26326e-14 0 0)
(7.10543e-15 0 0)
(-7.81597e-14 0 0)
(7.81597e-14 0 0)
(4.26326e-14 0 0)
(-8.52651e-14 0 0)
(-3.55271e-14 0 0)
(-7.10543e-15 0 0)
(2.84217e-14 0 0)
(-7.10543e-15 0 0)
(1.42109e-14 0 0)
(2.13163e-14 0 0)
(4.9738e-14 0 0)
(3.55271e-14 0 0)
(-7.10543e-14 0 0)
(2.13163e-14 0 0)
(1.42109e-14 0 0)
(-2.84217e-14 0 0)
(-2.13163e-14 0 0)
(-4.26326e-14 0 0)
(7.10543e-15 0 0)
(4.26326e-14 0 0)
(1.42109e-14 0 0)
(1.56764e-21 0 0)
(-3.55271e-14 0 0)
(-7.10543e-15 0 0)
(1.42109e-14 0 0)
(-2.13163e-14 0 0)
(-2.84217e-14 0 0)
(-2.84217e-14 0 0)
(4.9738e-14 0 0)
(2.84217e-14 0 0)
(-4.26326e-14 0 0)
(-5.68434e-14 0 0)
(-3.55271e-14 0 0)
(4.26326e-14 0 0)
(2.84217e-14 0 0)
(-6.39488e-14 0 0)
(-5.68434e-14 0 0)
(4.9738e-14 0 0)
(1.42109e-14 0 0)
(-2.84217e-14 0 0)
(4.26326e-14 0 0)
(-2.13163e-14 0 0)
(4.9738e-14 0 0)
(5.68434e-14 0 0)
(-6.39488e-14 0 0)
(7.10543e-15 0 0)
(2.84217e-14 0 0)
(-2.84217e-14 0 0)
(-2.13163e-14 0 0)
(4.9738e-14 0 0)
(-2.13163e-14 0 0)
(-2.13163e-14 0 0)
(-2.13163e-14 0 0)
(-2.84217e-14 0 0)
(4.26326e-14 0 0)
(4.9738e-14 0 0)
(-7.10543e-15 0 0)
(7.10543e-15 0 0)
(2.84217e-14 0 0)
(-2.84217e-14 0 0)
(-2.13163e-14 0 0)
(2.84217e-14 0 0)
(1.42109e-14 0 0)
(-4.26326e-14 0 0)
(-7.10543e-15 0 0)
(3.55271e-14 0 0)
(-5.68434e-14 0 0)
(3.55271e-14 0 0)
(7.81597e-14 0 0)
(-8.52651e-14 0 0)
(-7.10543e-15 0 0)
(3.55271e-14 0 0)
(1.42109e-14 0 0)
(2.13163e-14 0 0)
(4.18895e-22 0 0)
(-3.55271e-14 0 0)
(-6.39488e-14 0 0)
(-7.10543e-15 0 0)
(7.10543e-15 0 0)
(-7.10543e-15 0 0)
(5.68434e-14 0 0)
(-6.39488e-14 0 0)
(-4.26326e-14 0 0)
(1.13687e-13 0 0)
(1.42109e-14 0 0)
(-7.10543e-15 0 0)
(-7.10543e-14 0 0)
(-6.39488e-14 0 0)
(3.55271e-14 0 0)
(2.84217e-14 0 0)
(2.84217e-14 0 0)
(-2.84217e-14 0 0)
(-4.26326e-14 0 0)
(1.42109e-14 0 0)
(3.55271e-14 0 0)
(-2.84217e-14 0 0)
(-2.44954e-22 0 0)
(6.39488e-14 0 0)
(7.10543e-15 0 0)
(-5.68434e-14 0 0)
(-6.39488e-14 0 0)
(1.42109e-14 0 0)
(4.26326e-14 0 0)
(2.68514e-21 0 0)
(-7.10543e-15 0 0)
(-2.84217e-14 0 0)
(-7.10543e-15 0 0)
(3.55271e-14 0 0)
(2.84217e-14 0 0)
(-3.55271e-14 0 0)
(-2.84217e-14 0 0)
(2.13163e-14 0 0)
(8.5266e-22 0 0)
(-2.84217e-14 0 0)
(-1.42109e-14 0 0)
(-1.42109e-14 0 0)
(5.68434e-14 0 0)
(5.68434e-14 0 0)
(-2.84217e-14 0 0)
(-5.68434e-14 0 0)
(2.84217e-14 0 0)
(6.39488e-14 0 0)
(-4.9738e-14 0 0)
(-2.13163e-14 0 0)
(1.42109e-14 0 0)
(1.42109e-14 0 0)
(2.13163e-14 0 0)
(3.55271e-14 0 0)
(2.13163e-14 0 0)
(-6.39488e-14 0 0)
(-2.84217e-14 0 0)
(7.10543e-15 0 0)
(3.55271e-14 0 0)
(2.84217e-14 0 0)
(-2.13163e-14 0 0)
(-2.84217e-14 0 0)
(-4.26326e-14 0 0)
(2.84217e-14 0 0)
(4.26326e-14 0 0)
(-1.42109e-14 0 0)
(-3.55271e-14 0 0)
(-2.13163e-14 0 0)
(4.9738e-14 0 0)
(-1.42109e-14 0 0)
(-4.9738e-14 0 0)
(1.42109e-14 0 0)
(2.13163e-14 0 0)
(-2.13163e-14 0 0)
(-2.84217e-14 0 0)
(5.68434e-14 0 0)
(4.26326e-14 0 0)
(4.9738e-14 0 0)
(2.13163e-14 0 0)
(-2.13163e-14 0 0)
(1.42109e-14 0 0)
(7.10543e-15 0 0)
(-1.42109e-14 0 0)
(-7.10543e-15 0 0)
(-4.9738e-14 0 0)
(-7.81597e-14 0 0)
(2.84217e-14 0 0)
(4.9738e-14 0 0)
(-6.8173e-23 0 0)
(1.42109e-14 0 0)
(-1.42109e-14 0 0)
(3.55271e-14 0 0)
(2.13163e-14 0 0)
(-3.55271e-14 0 0)
(-2.13163e-14 0 0)
(4.9738e-14 0 0)
(4.9738e-14 0 0)
(-5.68434e-14 0 0)
(-5.68434e-14 0 0)
(-1.42109e-14 0 0)
(7.81597e-14 0 0)
(1.42109e-14 0 0)
(-7.81597e-14 0 0)
(7.10543e-15 0 0)
(-1.42109e-14 0 0)
(-3.55271e-14 0 0)
(2.84217e-14 0 0)
(1.42109e-14 0 0)
(7.10543e-15 0 0)
(1.42109e-14 0 0)
(1.42109e-14 0 0)
(4.26326e-14 0 0)
(-2.13163e-14 0 0)
(-3.55271e-14 0 0)
(-1.08625e-21 0 0)
(-1.42109e-14 0 0)
(4.26326e-14 0 0)
(5.68434e-14 0 0)
(1.42109e-14 0 0)
(-6.39488e-14 0 0)
(-7.10543e-14 0 0)
(3.55271e-14 0 0)
(3.55271e-14 0 0)
(-5.68434e-14 0 0)
(-3.55271e-14 0 0)
(6.39488e-14 0 0)
(2.84217e-14 0 0)
(-3.55271e-14 0 0)
(-7.10543e-15 0 0)
(-1.07205e-21 0 0)
(8.46979e-22 0 0)
(1.42109e-14 0 0)
(-1.42109e-14 0 0)
(-2.84217e-14 0 0)
(2.84217e-14 0 0)
(2.13163e-14 0 0)
(-1.42109e-14 0 0)
(5.68434e-14 0 0)
(-2.13163e-14 0 0)
(-7.10543e-14 0 0)
(-7.10543e-15 0 0)
(-3.55271e-14 0 0)
(2.84217e-14 0 0)
(6.39488e-14 0 0)
(-7.10543e-15 0 0)
(2.13163e-14 0 0)
(-2.13163e-14 0 0)
(-4.9738e-14 0 0)
(2.13163e-14 0 0)
(-9.03122e-22 0 0)
(-1.42109e-14 0 0)
(-7.10543e-14 0 0)
(-1.42109e-14 0 0)
(9.23706e-14 0 0)
(7.10543e-15 0 0)
(-4.9738e-14 0 0)
(-4.26326e-14 0 0)
(-1.42109e-14 0 0)
(3.55271e-14 0 0)
(7.10543e-14 0 0)
(2.62549e-21 0 0)
(-7.81597e-14 0 0)
(2.84217e-14 0 0)
(2.13163e-14 0 0)
(-9.23706e-14 0 0)
(-1.42109e-14 0 0)
(4.9738e-14 0 0)
(2.13163e-14 0 0)
(1.42109e-14 0 0)
(-2.84217e-14 0 0)
(-3.55271e-14 0 0)
(2.84217e-14 0 0)
(8.52651e-14 0 0)
(-2.84217e-14 0 0)
(-5.68434e-14 0 0)
(-2.13163e-14 0 0)
(-6.39488e-14 0 0)
(4.26326e-14 0 0)
(6.39488e-14 0 0)
(-7.10543e-15 0 0)
(-7.10543e-15 0 0)
(-3.55271e-14 0 0)
(-2.13163e-14 0 0)
(-2.13163e-14 0 0)
(7.10543e-15 0 0)
(4.26326e-14 0 0)
(-3.55271e-14 0 0)
(-7.10543e-15 0 0)
(4.26326e-14 0 0)
(-2.84217e-14 0 0)
(7.10543e-15 0 0)
(3.55271e-14 0 0)
(1.01741e-21 0 0)
(-4.26326e-14 0 0)
(-1.42109e-14 0 0)
(9.9476e-14 0 0)
(-2.35765e-22 0 0)
(-4.26326e-14 0 0)
(1.42109e-14 0 0)
(-7.10543e-15 0 0)
(-7.10543e-14 0 0)
(-3.55271e-14 0 0)
(5.68434e-14 0 0)
(3.55271e-14 0 0)
(2.13163e-14 0 0)
(7.10543e-15 0 0)
(4.26326e-14 0 0)
(-6.39488e-14 0 0)
(-7.81597e-14 0 0)
(7.81597e-14 0 0)
(2.13163e-14 0 0)
(-1.83816e-21 0 0)
(2.13163e-14 0 0)
(-6.39488e-14 0 0)
(-2.84217e-14 0 0)
(4.9738e-14 0 0)
(-3.55271e-14 0 0)
(7.10543e-15 0 0)
(5.68434e-14 0 0)
(1.42109e-14 0 0)
(-3.55271e-14 0 0)
(-4.9738e-14 0 0)
(1.42109e-14 0 0)
(7.10543e-15 0 0)
(-2.84217e-14 0 0)
(-4.26326e-14 0 0)
(1.42109e-14 0 0)
(7.10543e-15 0 0)
(7.10543e-15 0 0)
(2.13163e-14 0 0)
(-2.59641e-21 0 0)
(4.26326e-14 0 0)
(1.42109e-14 0 0)
(-2.13163e-14 0 0)
(1.55694e-21 0 0)
(2.84217e-14 0 0)
(-7.10543e-15 0 0)
(-3.55271e-14 0 0)
(2.84217e-14 0 0)
(2.84217e-14 0 0)
(-1.42109e-14 0 0)
(1.42109e-14 0 0)
(-2.13163e-14 0 0)
(-2.13163e-14 0 0)
(-2.84217e-14 0 0)
(-7.10543e-15 0 0)
(4.9738e-14 0 0)
(-7.10543e-15 0 0)
(-2.13163e-14 0 0)
(-2.13163e-14 0 0)
(7.10543e-15 0 0)
(1.42109e-14 0 0)
(2.84217e-14 0 0)
(2.84217e-14 0 0)
(-7.10543e-15 0 0)
(-3.55271e-14 0 0)
(-1.42109e-14 0 0)
(3.55271e-14 0 0)
(1.42109e-14 0 0)
(4.26326e-14 0 0)
(-1.42109e-14 0 0)
(-6.39488e-14 0 0)
(2.84217e-14 0 0)
(2.13163e-14 0 0)
(-2.13163e-14 0 0)
(-2.13163e-14 0 0)
(-7.10543e-15 0 0)
(7.10543e-14 0 0)
(2.84217e-14 0 0)
(-3.55271e-14 0 0)
(-1.42109e-14 0 0)
(-7.10543e-15 0 0)
(7.81597e-14 0 0)
(8.03703e-22 0 0)
(-7.10543e-14 0 0)
(3.55271e-14 0 0)
(7.10543e-15 0 0)
(1.59738e-21 0 0)
(2.84217e-14 0 0)
(-6.39488e-14 0 0)
(-2.84217e-14 0 0)
(2.13163e-14 0 0)
(2.84217e-14 0 0)
(1.42109e-14 0 0)
(4.9738e-14 0 0)
(-3.47882e-22 0 0)
(-1.13687e-13 0 0)
(-4.26326e-14 0 0)
(-2.08445e-21 0 0)
(2.84217e-14 0 0)
(8.52651e-14 0 0)
(7.10542e-15 0 0)
(-5.68434e-14 0 0)
(1.42109e-14 0 0)
(-7.10543e-15 0 0)
(-5.68434e-14 0 0)
(2.13163e-14 0 0)
(1.13687e-13 0 0)
(4.26326e-14 0 0)
(-1.21057e-21 0 0)
(-5.68434e-14 0 0)
(-7.81597e-14 0 0)
(7.10543e-15 0 0)
(4.26326e-14 0 0)
(6.39488e-14 0 0)
(-7.10543e-15 0 0)
(-7.10543e-14 0 0)
(-1.42109e-14 0 0)
(3.55271e-14 0 0)
(7.10543e-15 0 0)
(7.10543e-15 0 0)
(6.39488e-14 0 0)
(-2.13163e-14 0 0)
(-4.26326e-14 0 0)
(2.13163e-14 0 0)
(7.10543e-15 0 0)
(-3.55271e-14 0 0)
(-1.42109e-14 0 0)
(4.26326e-14 0 0)
(7.10543e-15 0 0)
(-5.68434e-14 0 0)
(-1.42109e-14 0 0)
(4.9738e-14 0 0)
(-7.10543e-15 0 0)
(-2.84217e-14 0 0)
(-1.42109e-14 0 0)
(4.9738e-14 0 0)
(1.42109e-14 0 0)
(-4.26326e-14 0 0)
(7.10543e-15 0 0)
(1.42109e-14 0 0)
(7.10543e-15 0 0)
(-6.39488e-14 0 0)
(-4.9738e-14 0 0)
(4.26326e-14 0 0)
(7.81597e-14 0 0)
(7.10543e-15 0 0)
(-4.26326e-14 0 0)
(-2.13163e-14 0 0)
(1.42109e-14 0 0)
(7.10543e-15 0 0)
(-2.84217e-14 0 0)
(7.81597e-14 0 0)
(-7.10543e-15 0 0)
(-7.10543e-14 0 0)
(2.84217e-14 0 0)
(1.42109e-14 0 0)
(1.42109e-14 0 0)
(7.10543e-15 0 0)
(-2.84217e-14 0 0)
(-2.13163e-14 0 0)
(6.39488e-14 0 0)
(-6.44633e-22 0 0)
(-7.10543e-14 0 0)
(1.42109e-14 0 0)
(2.84217e-14 0 0)
(-2.13163e-14 0 0)
(2.84217e-14 0 0)
(4.26326e-14 0 0)
(-7.10543e-14 0 0)
(-7.81597e-14 0 0)
(2.13163e-14 0 0)
(3.55271e-14 0 0)
(7.10543e-15 0 0)
(2.84217e-14 0 0)
(-2.13163e-14 0 0)
(-2.84217e-14 0 0)
(1.42109e-14 0 0)
(-2.13163e-14 0 0)
(1.42109e-14 0 0)
(2.13163e-14 0 0)
(7.10543e-15 0 0)
(-3.55271e-14 0 0)
(-1.42109e-14 0 0)
(4.9738e-14 0 0)
(-2.13163e-14 0 0)
(-5.68434e-14 0 0)
(-4.26326e-14 0 0)
(4.26326e-14 0 0)
(7.10543e-14 0 0)
(2.84217e-14 0 0)
(-7.10543e-15 0 0)
(-1.20271e-21 0 0)
(-9.32863e-22 0 0)
(-3.55271e-14 0 0)
(-2.13163e-14 0 0)
(2.13163e-14 0 0)
(7.10543e-15 0 0)
(-3.73446e-21 0 0)
(2.84217e-14 0 0)
(-2.84217e-14 0 0)
(-2.13163e-14 0 0)
(7.10543e-14 0 0)
(-7.10543e-15 0 0)
(-5.68434e-14 0 0)
(1.42109e-14 0 0)
(1.1997e-22 0 0)
(-1.42109e-14 0 0)
(7.10543e-15 0 0)
(7.10543e-15 0 0)
(-4.26326e-14 0 0)
(7.10543e-15 0 0)
(8.52651e-14 0 0)
(-3.55271e-14 0 0)
(-3.55271e-14 0 0)
(2.22714e-21 0 0)
(2.13163e-14 0 0)
(4.9738e-14 0 0)
(-2.13163e-14 0 0)
(7.10543e-15 0 0)
(7.10543e-15 0 0)
(1.55694e-21 0 0)
(2.13163e-14 0 0)
(7.15647e-22 0 0)
(-2.13163e-14 0 0)
(-2.84217e-14 0 0)
(-8.30433e-23 0 0)
(2.13163e-14 0 0)
(-7.10543e-15 0 0)
(-2.13163e-14 0 0)
(3.55271e-14 0 0)
(7.10543e-15 0 0)
(7.10543e-15 0 0)
(-3.55271e-14 0 0)
(-4.9738e-14 0 0)
(4.26326e-14 0 0)
(-2.13163e-14 0 0)
(-2.13163e-14 0 0)
(7.10543e-15 0 0)
(7.10543e-15 0 0)
(2.13163e-14 0 0)
(-2.13163e-14 0 0)
(-2.84217e-14 0 0)
(2.13163e-14 0 0)
(7.10543e-15 0 0)
(7.10543e-15 0 0)
(-4.19404e-23 0 0)
(1.42109e-14 0 0)
(9.9476e-14 0 0)
(4.9738e-14 0 0)
(-1.13687e-13 0 0)
(-4.26326e-14 0 0)
(3.55271e-14 0 0)
(-3.55271e-14 0 0)
(-2.13163e-14 0 0)
(-1.07773e-21 0 0)
(8.65514e-23 0 0)
(2.84217e-14 0 0)
(3.44373e-22 0 0)
(-2.13163e-14 0 0)
(2.84217e-14 0 0)
(-2.13163e-14 0 0)
(-4.26326e-14 0 0)
(-2.84217e-14 0 0)
(1.42109e-14 0 0)
(4.26326e-14 0 0)
(-2.13163e-14 0 0)
(-2.13163e-14 0 0)
(4.9738e-14 0 0)
(8.52651e-14 0 0)
(3.55272e-14 0 0)
(2.84217e-14 0 0)
(5.68435e-14 0 0)
(7.10548e-15 0 0)
(8.52652e-14 0 0)
(2.27374e-13 0 0)
(3.55272e-13 0 0)
(6.82122e-13 0 0)
(1.11555e-12 0 0)
(1.84031e-12 0 0)
(3.16902e-12 0 0)
(5.37881e-12 0 0)
(9.0239e-12 0 0)
(1.49854e-11 0 0)
(2.48548e-11 0 0)
(4.08491e-11 0 0)
(6.68266e-11 0 0)
(1.08862e-10 0 0)
(1.76158e-10 0 0)
(2.83336e-10 0 0)
(4.52851e-10 0 0)
(7.19546e-10 0 0)
(1.13619e-09 0 0)
(1.78273e-09 0 0)
(2.77957e-09 0 0)
(4.30597e-09 0 0)
(6.62738e-09 0 0)
(1.01335e-08 0 0)
(1.53914e-08 0 0)
(2.32198e-08 0 0)
(3.47911e-08 0 0)
(5.17695e-08 0 0)
(7.64944e-08 0 0)
(1.12226e-07 0 0)
(1.63465e-07 0 0)
(2.36364e-07 0 0)
(3.39245e-07 0 0)
(4.83255e-07 0 0)
(6.83159e-07 0 0)
(9.58293e-07 0 0)
(1.33369e-06 0 0)
(1.84134e-06 0 0)
(2.52165e-06 0 0)
(3.42486e-06 0 0)
(4.61266e-06 0 0)
(6.15951e-06 0 0)
(8.15383e-06 0 0)
(1.06987e-05 0 0)
(1.39117e-05 0 0)
(1.79242e-05 0 0)
(2.28789e-05 0 0)
(2.89258e-05 0 0)
(3.62171e-05 0 0)
(4.48991e-05 0 0)
(5.51028e-05 0 0)
(6.69328e-05 0 0)
(8.0454e-05 0 0)
(9.56786e-05 0 0)
(0.000112553 0 0)
(0.000130944 0 0)
(0.000150634 0 0)
(0.000171313 0 0)
(0.000192576 0 0)
(0.000213939 0 0)
(0.000234843 0 0)
(0.00025468 0 0)
(0.00027282 0 0)
(0.000288636 0 0)
(0.000301544 0 0)
(0.000311031 0 0)
(0.000316687 0 0)
(0.000318228 0 0)
(0.000315514 0 0)
(0.000308555 0 0)
(0.000297511 0 0)
(0.000282684 0 0)
(0.000264492 0 0)
(0.000243453 0 0)
(0.000220152 0 0)
(0.000195212 0 0)
(0.000169264 0 0)
(0.000142919 0 0)
(0.000116747 0 0)
(9.1257e-05 0 0)
(6.68818e-05 0 0)
(4.3973e-05 0 0)
(2.27967e-05 0 0)
(3.53468e-06 0 0)
(-1.37098e-05 0 0)
(-2.89045e-05 0 0)
(-4.20783e-05 0 0)
(-5.33101e-05 0 0)
(-6.27177e-05 0 0)
(-7.04469e-05 0 0)
(-7.66618e-05 0 0)
(-8.15351e-05 0 0)
(-8.52401e-05 0 0)
(-8.79441e-05 0 0)
(-8.98043e-05 0 0)
(-9.09643e-05 0 0)
(-9.15524e-05 0 0)
(-9.16808e-05 0 0)
(-9.14453e-05 0 0)
(-9.09268e-05 0 0)
(-9.01918e-05 0 0)
(-8.92948e-05 0 0)
(-8.82792e-05 0 0)
(-8.71793e-05 0 0)
(-8.6022e-05 0 0)
(-8.4828e-05 0 0)
(-8.36133e-05 0 0)
(-8.239e-05 0 0)
(-8.11673e-05 0 0)
(-7.99524e-05 0 0)
(-7.87506e-05 0 0)
(-7.75661e-05 0 0)
(-7.64019e-05 0 0)
(-7.52606e-05 0 0)
(-7.41441e-05 0 0)
(-7.30539e-05 0 0)
(-7.1991e-05 0 0)
(-7.09562e-05 0 0)
(-6.995e-05 0 0)
(-6.89726e-05 0 0)
(-6.80243e-05 0 0)
(-6.71047e-05 0 0)
(-6.62136e-05 0 0)
(-6.53506e-05 0 0)
(-6.45152e-05 0 0)
(-6.37069e-05 0 0)
(-6.2925e-05 0 0)
(-6.21691e-05 0 0)
(-6.14388e-05 0 0)
(-6.07336e-05 0 0)
(-6.00533e-05 0 0)
(-5.93975e-05 0 0)
(-5.8766e-05 0 0)
(-5.81585e-05 0 0)
(-5.75743e-05 0 0)
(-5.70127e-05 0 0)
(-5.64725e-05 0 0)
(-5.59523e-05 0 0)
(-5.545e-05 0 0)
(-5.49633e-05 0 0)
(-5.44895e-05 0 0)
(-5.40255e-05 0 0)
(-5.35683e-05 0 0)
(-5.31147e-05 0 0)
(-5.26619e-05 0 0)
(-5.22071e-05 0 0)
(-5.17482e-05 0 0)
(-5.12834e-05 0 0)
(-5.08117e-05 0 0)
(-5.03325e-05 0 0)
(-4.98456e-05 0 0)
(-4.9352e-05 0 0)
(-4.88515e-05 0 0)
(-4.83475e-05 0 0)
(-4.78366e-05 0 0)
(-4.73297e-05 0 0)
(-4.68114e-05 0 0)
(-4.63102e-05 0 0)
(-4.57897e-05 0 0)
(-4.52919e-05 0 0)
(-4.48003e-05 0 0)
(-4.425e-05 0 0)
(-4.38955e-05 0 0)
(-4.31557e-05 0 0)
(-4.30698e-05 0 0)
(-4.21136e-05 0 0)
(-4.21494e-05 0 0)
(-4.12952e-05 0 0)
(-4.11444e-05 0 0)
(-4.0467e-05 0 0)
(-4.03592e-05 0 0)
(-3.96157e-05 0 0)
(-3.94571e-05 0 0)
(-3.89949e-05 0 0)
(-3.88007e-05 0 0)
(-3.80918e-05 0 0)
(-3.8487e-05 0 0)
(-3.91831e-05 0 0)
(-3.8917e-05 0 0)
(-3.05903e-05 0 0)
(-1.85084e-05 0 0)
(-2.38869e-05 0 0)
(-2.81817e-05 0 0)
(-2.7531e-05 0 0)
(-2.73688e-05 0 0)
(-2.73459e-05 0 0)
(-2.73981e-05 0 0)
(-2.71449e-05 0 0)
(-2.67472e-05 0 0)
(-2.66301e-05 0 0)
(-2.67312e-05 0 0)
(-2.67048e-05 0 0)
(-2.64912e-05 0 0)
(-2.62523e-05 0 0)
(-2.60419e-05 0 0)
(-2.57986e-05 0 0)
(-2.55255e-05 0 0)
(-2.52679e-05 0 0)
(-2.50712e-05 0 0)
(-2.48624e-05 0 0)
(-2.4679e-05 0 0)
(-2.43742e-05 0 0)
(-2.41783e-05 0 0)
(-2.37151e-05 0 0)
(-2.36137e-05 0 0)
(-2.28973e-05 0 0)
(-2.3077e-05 0 0)
(-2.19416e-05 0 0)
(-2.26268e-05 0 0)
(-2.09125e-05 0 0)
(-2.21745e-05 0 0)
(-2.0043e-05 0 0)
(-2.13921e-05 0 0)
(-1.98114e-05 0 0)
(-1.98466e-05 0 0)
(-2.0662e-05 0 0)
(-1.77606e-05 0 0)
(-2.09528e-05 0 0)
(-1.61056e-05 0 0)
(-8.3792e-06 0 0)
(-2.62167e-05 0 0)
(-3.19358e-05 0 0)
(-2.23392e-05 0 0)
(-3.43463e-06 0 0)
(-1.16256e-05 0 0)
(-1.54553e-05 0 0)
(-3.23317e-05 0 0)
(-2.17823e-08 0 0)
(-4.09488e-06 0 0)
(-2.30304e-05 0 0)
(-1.98198e-05 0 0)
(-9.78192e-06 0 0)
(-1.17717e-05 0 0)
(-1.40025e-05 0 0)
(-1.3613e-05 0 0)
(-1.18549e-05 0 0)
(-1.2716e-05 0 0)
(-1.10098e-05 0 0)
(-1.22712e-05 0 0)
(-1.06914e-05 0 0)
(-1.19578e-05 0 0)
(-9.65824e-06 0 0)
(-1.03106e-05 0 0)
(-9.68574e-06 0 0)
(-1.04456e-05 0 0)
(-8.62495e-06 0 0)
(-9.62194e-06 0 0)
(-8.10784e-06 0 0)
(-9.32159e-06 0 0)
(-7.40238e-06 0 0)
(-8.55131e-06 0 0)
(-6.82096e-06 0 0)
(-7.75908e-06 0 0)
(-6.19669e-06 0 0)
(-7.20778e-06 0 0)
(-5.88101e-06 0 0)
(-4.14627e-06 0 0)
(-8.82148e-06 0 0)
(-3.72301e-06 0 0)
(-6.03437e-06 0 0)
(-5.02084e-06 0 0)
(-4.80374e-06 0 0)
(-4.96604e-06 0 0)
(-5.32644e-06 0 0)
(-4.68433e-06 0 0)
(-3.30937e-06 0 0)
(-4.31192e-06 0 0)
(-4.28388e-06 0 0)
(-3.7356e-06 0 0)
(-2.44428e-06 0 0)
(-3.02906e-06 0 0)
(-2.94213e-06 0 0)
(-3.03161e-06 0 0)
(-5.31556e-06 0 0)
(-2.71607e-05 0 0)
(-0.000106356 0 0)
(-0.000321345 0 0)
(-0.00103373 0 0)
(-0.0022445 0 0)
(0.00313544 0 0)
)
;

boundaryField
{
    sideLeft
    {
        type            symmetryPlane;
    }
    sideRight
    {
        type            calculated;
        value           uniform (-0.418025 0 0);
    }
    topbottom
    {
        type            empty;
    }
    frontback
    {
        type            empty;
    }
}


// ************************************************************************* //
