/*--------------------------------*- C++ -*----------------------------------*\
| =========                 |                                                 |
| \\      /  F ield         | OpenFOAM: The Open Source CFD Toolbox           |
|  \\    /   O peration     | Version:  2.4.0                                 |
|   \\  /    A nd           | Web:      www.OpenFOAM.org                      |
|    \\/     M anipulation  |                                                 |
\*---------------------------------------------------------------------------*/
FoamFile
{
    version     2.0;
    format      ascii;
    class       surfaceScalarField;
    location    "0.05";
    object      phi;
}
// * * * * * * * * * * * * * * * * * * * * * * * * * * * * * * * * * * * * * //

dimensions      [0 3 -1 0 0 0 0];

internalField   nonuniform List<scalar> 
999
(
-7.11291e-13
-1.62633e-12
-4.81998e-13
8.05939e-13
7.24667e-13
4.90975e-13
-1.84741e-13
-1.60074e-13
-1.40539e-13
-8.8934e-13
-1.53058e-12
-1.23957e-12
-1.8104e-12
-1.96167e-12
-5.1905e-13
7.39958e-13
7.67386e-13
5.65345e-13
-6.12953e-13
-1.66281e-12
-1.47959e-12
-1.62645e-12
-2.52586e-13
-1.4488e-12
-2.57637e-12
-2.56562e-12
-1.64257e-12
-1.07454e-12
-2.00144e-12
-3.68117e-12
-3.34034e-12
-3.28524e-12
-3.70586e-12
-3.57482e-12
-2.99262e-12
-2.14293e-12
-1.18568e-12
-1.94191e-12
-2.67155e-12
-2.1669e-12
-2.10929e-12
-1.96791e-12
-3.12432e-12
-3.51273e-12
-3.18354e-12
-2.31266e-12
-2.9298e-12
-3.47777e-12
-2.21203e-12
-1.66738e-12
-1.46749e-12
-4.49945e-13
6.18693e-13
7.94453e-13
1.83349e-12
1.29674e-12
2.42743e-13
1.12266e-12
1.46542e-12
1.17447e-12
1.4019e-12
1.539e-12
1.25437e-12
1.96562e-12
2.19281e-12
5.11973e-13
1.26772e-12
2.40452e-13
2.74408e-13
7.62471e-13
1.96358e-12
3.31331e-13
2.19108e-12
1.9571e-12
9.08725e-13
-1.22419e-13
3.85371e-13
6.43926e-13
-3.4106e-13
-2.88412e-13
1.53985e-12
2.47955e-12
1.97782e-12
1.14514e-12
2.72254e-12
3.6004e-12
3.62388e-12
2.71834e-12
1.7397e-12
1.70443e-12
1.78089e-12
2.98428e-13
1.45109e-13
6.73394e-13
1.42108e-13
1.02825e-12
6.25278e-13
-6.537e-13
-1.28627e-12
-5.18927e-13
-2.09312e-13
-9.84744e-13
-9.45692e-13
-4.71883e-13
-1.51338e-12
-8.20073e-13
-1.18853e-12
-7.3271e-13
-1.42107e-14
1.42109e-13
7.93113e-13
1.94447e-12
3.92578e-13
-2.7961e-13
-9.34836e-13
-7.58216e-13
-7.50016e-13
-2.03779e-12
-2.42319e-12
-2.98375e-12
-3.94781e-12
-2.59876e-12
-1.61909e-12
-2.30192e-12
-2.46787e-12
-3.48827e-12
-2.13202e-12
-1.9545e-12
-1.71557e-12
-1.1182e-12
-1.11207e-12
-2.89096e-13
-9.64243e-13
-1.96068e-13
5.16647e-13
-2.17186e-13
-9.08982e-13
-1.19326e-12
-1.57915e-12
-2.43286e-12
-3.07398e-12
-4.1838e-12
-4.20904e-12
-3.52033e-12
-2.75951e-12
-2.47125e-12
-1.7182e-12
-1.50578e-12
-1.89761e-12
-1.18776e-12
-2.02191e-12
-1.84845e-12
-7.14346e-13
-2.55795e-13
3.5754e-13
2.59176e-13
-5.50577e-13
-1.91119e-12
-9.94538e-13
-1.22124e-12
-1.61241e-12
-7.438e-13
-7.30307e-14
7.84828e-13
7.9627e-13
-1.2926e-13
-1.27898e-13
-1.99838e-13
3.42431e-13
-1.29757e-13
-2.67136e-13
-1.98952e-13
9.94759e-14
8.7934e-13
1.66489e-12
6.992e-13
1.70017e-12
1.79189e-12
1.22381e-12
5.63871e-13
7.67386e-13
8.9616e-13
1.65705e-12
1.37246e-12
1.27894e-12
1.51684e-12
8.10458e-14
7.91179e-13
1.13453e-12
1.5148e-12
4.43427e-13
6.53699e-13
3.29261e-14
1.07064e-13
-7.2504e-13
-9.29306e-13
-2.28979e-13
3.16482e-13
-4.9577e-13
-9.92424e-13
-1.37463e-12
-7.02758e-13
-4.03144e-13
-6.29146e-13
-1.44001e-12
-7.13959e-13
-2.06942e-12
-2.08098e-12
-3.21784e-12
-1.51064e-12
-1.73044e-12
-1.18028e-12
-2.44808e-12
-3.01451e-12
-2.94073e-12
-2.33977e-12
-2.64811e-12
-1.7024e-12
-2.83345e-12
-1.71048e-12
-1.39027e-12
-1.52961e-12
-8.63968e-13
5.68438e-14
-7.05338e-13
3.92547e-13
2.09999e-12
1.47125e-12
2.73502e-12
2.37841e-12
1.69206e-12
2.01079e-12
2.2879e-12
1.7067e-12
1.4807e-12
1.43734e-12
1.42683e-12
2.03405e-12
1.12976e-12
8.40002e-13
9.54044e-13
5.71022e-13
3.1485e-13
-3.12639e-13
-4.42638e-13
8.81344e-14
2.4886e-13
-1.30338e-14
-2.13163e-13
1.27476e-12
-9.44157e-14
-6.25236e-13
-9.06073e-14
5.10805e-13
1.46801e-12
2.29388e-12
1.19286e-12
6.06912e-13
-6.37846e-13
-8.74238e-13
-5.26637e-13
8.4649e-14
2.13162e-13
7.45224e-13
9.47006e-13
-2.90663e-13
-9.76168e-13
-7.15928e-13
9.00425e-13
1.46858e-12
3.40812e-13
-2.41585e-13
4.8831e-13
9.6122e-14
3.97904e-13
5.68438e-14
1.31122e-12
1.45562e-12
1.7269e-12
8.85502e-13
7.66325e-13
1.04561e-12
1.51545e-12
1.09924e-12
1.27971e-12
1.75626e-12
1.61393e-12
2.92012e-12
3.54968e-12
3.93937e-12
3.10554e-12
3.34448e-12
6.04315e-12
4.71873e-12
2.29935e-12
1.5952e-12
1.27898e-13
-3.30319e-13
-2.11254e-12
-2.86885e-12
-3.47167e-12
-2.64653e-12
-2.85177e-12
-1.56636e-12
-1.41293e-12
-1.49763e-12
-1.47374e-12
-1.46573e-12
-5.0153e-13
-9.96104e-13
-1.1666e-12
-1.78919e-12
-1.45849e-12
-2.67357e-12
-2.76014e-12
-2.34948e-12
-2.72734e-12
-1.2661e-12
-8.18012e-13
1.1183e-12
9.96349e-13
4.26326e-13
1.29486e-12
1.03438e-12
1.64955e-12
1.66388e-12
1.50973e-12
7.97872e-13
1.02702e-12
1.49834e-12
1.78391e-12
1.63325e-12
2.18664e-12
1.47545e-12
1.01811e-12
1.72313e-12
2.86099e-12
2.19208e-12
1.67347e-12
1.56922e-12
1.06364e-12
2.92924e-13
6.53859e-13
1.94432e-12
1.25798e-12
1.40094e-12
8.26021e-13
8.96106e-14
-1.39562e-13
-1.00188e-12
-1.20177e-12
-1.92188e-12
-2.81316e-12
-2.00644e-12
-6.20635e-13
1.03463e-12
1.83278e-12
1.4474e-12
1.14771e-12
4.25408e-14
2.41584e-13
-4.81764e-13
4.26332e-14
2.45696e-13
6.70588e-13
1.28839e-12
8.22502e-13
3.41017e-13
-7.93362e-13
-5.25802e-13
-3.82921e-13
-1.66412e-12
-8.98145e-13
-2.27373e-13
-8.39891e-13
-7.24197e-13
-2.11865e-12
-2.85948e-12
-2.51624e-12
-1.49858e-12
-1.23192e-12
-2.77988e-12
-2.66257e-12
-3.36447e-12
-3.154e-12
-2.13108e-12
-1.90438e-12
-3.38254e-13
-7.84774e-13
-1.21588e-12
-5.65858e-13
-7.44164e-13
-1.51855e-12
-8.85493e-13
-3.53605e-13
-9.80549e-13
-1.10395e-12
3.92946e-13
9.56685e-13
3.53358e-13
-1.13687e-13
-6.39488e-13
-1.41623e-12
-8.83389e-13
-1.06869e-12
-1.92484e-12
-2.5184e-12
-1.72827e-12
-9.28118e-13
7.00735e-13
7.94762e-13
1.41027e-12
1.03389e-12
1.86002e-13
6.57482e-13
2.41585e-13
-5.72936e-13
-1.37651e-12
5.45247e-14
6.15258e-13
2.02816e-12
1.91142e-12
2.5306e-12
1.88956e-12
2.16737e-12
2.03976e-12
1.88651e-12
1.39382e-12
5.48615e-13
1.55546e-13
7.87883e-13
1.8235e-13
-9.81793e-13
-7.10543e-13
-6.8625e-13
1.57504e-13
6.07058e-13
2.6649e-13
5.68436e-14
-2.13163e-13
-1.32122e-12
-2.30145e-12
-2.28424e-12
-1.38156e-12
-3.95353e-13
-3.69813e-13
2.22468e-13
1.18125e-12
7.21278e-13
5.05646e-13
-2.70006e-13
5.32437e-13
-5.86344e-13
-1.30161e-12
-3.12639e-13
2.84379e-13
-2.14663e-13
-6.51713e-13
-4.65273e-13
-2.76326e-13
3.16962e-13
-4.19087e-13
1.75569e-13
1.13214e-12
1.41678e-12
1.90174e-12
8.80178e-14
-1.14739e-12
-5.41873e-13
-8.56533e-13
-1.48689e-12
-1.43833e-12
-1.16026e-12
-1.14412e-12
-3.24656e-14
1.10134e-12
1.53637e-12
5.82645e-13
-6.01189e-14
-1.08664e-13
-7.04748e-13
6.56597e-13
1.61193e-12
1.43841e-12
1.55835e-12
1.91306e-12
1.47776e-12
9.7352e-13
1.08114e-12
9.20617e-13
-1.17198e-13
-2.27394e-13
-5.82447e-13
-1.26643e-12
-3.22143e-13
-1.09582e-12
-1.40422e-12
-1.02284e-12
-8.182e-13
-7.91671e-13
-1.95991e-12
-1.80531e-12
-1.49079e-12
-1.27981e-12
-3.01203e-12
-3.07897e-12
-2.77402e-12
-3.40808e-12
-3.24084e-12
-1.92597e-12
-1.58862e-12
-1.37595e-12
-1.48195e-13
1.37823e-12
1.28182e-12
1.89302e-12
1.13484e-12
2.12369e-12
1.85785e-12
1.67274e-12
3.32905e-13
7.6621e-13
-2.98428e-13
-8.5812e-13
-2.00384e-12
-1.83369e-12
-1.42305e-12
-2.41408e-12
-2.09868e-12
-2.66584e-12
-5.01095e-13
-1.04137e-13
5.21352e-13
9.6377e-13
2.27374e-13
6.86284e-13
1.21138e-12
6.72036e-13
7.65667e-13
7.05431e-13
1.03649e-12
8.06568e-13
-1.56319e-13
-6.7005e-13
-7.07579e-13
-1.26079e-12
-6.12825e-14
2.08503e-13
8.19588e-13
8.47226e-13
4.72523e-13
-1.71955e-13
-1.02641e-12
-1.86527e-12
-2.20509e-12
-6.82121e-13
2.13163e-13
9.70173e-13
9.32868e-13
9.78739e-13
1.94683e-12
2.22757e-12
2.16375e-12
2.29063e-12
3.16959e-12
2.13265e-12
8.20891e-13
-1.27685e-13
-1.13147e-12
-1.59661e-12
-1.16461e-12
-1.11553e-12
-1.74494e-12
-1.41689e-12
-1.78706e-12
-1.23783e-12
-4.12115e-13
-3.63295e-13
-2.70006e-13
-8.52472e-14
2.94458e-13
1.68907e-12
1.94998e-12
2.76136e-12
2.30544e-12
1.46323e-12
2.39364e-13
-5.68434e-14
-5.13777e-14
-2.27374e-13
-1.19088e-13
1.56568e-13
3.7131e-13
1.56122e-12
2.71562e-12
4.06782e-12
4.06072e-12
4.21435e-12
4.14738e-12
3.73994e-12
3.63452e-12
2.99139e-12
3.62308e-12
4.42933e-12
3.84734e-12
3.25848e-12
2.3381e-12
2.67727e-12
2.71882e-12
1.91435e-12
1.22727e-12
8.35293e-13
5.48523e-13
1.13687e-13
-2.10886e-14
-7.20852e-14
-1.10831e-12
-1.43548e-12
-1.42831e-12
-2.64085e-12
-3.17792e-12
-1.51308e-12
-2.19828e-12
-1.71403e-12
-7.08049e-13
-2.80629e-13
2.70818e-13
1.98797e-13
2.87227e-13
5.75537e-13
1.21807e-12
8.39951e-13
5.5642e-13
7.39954e-14
6.58658e-14
1.69544e-13
1.42104e-14
-3.23847e-13
-1.7053e-13
-1.22457e-13
-1.40948e-12
-3.21242e-13
1.6949e-13
3.9349e-13
-2.4386e-13
-6.69197e-13
-8.10071e-13
-6.65905e-13
9.94763e-14
1.38062e-13
-3.7149e-13
-1.04329e-12
-8.37931e-13
-2.44574e-12
-1.79374e-12
-1.22938e-12
-2.52943e-12
-2.76136e-12
-1.6984e-12
-1.5809e-12
-1.84866e-12
-1.79813e-12
-1.42027e-12
-4.24571e-13
-9.55479e-13
4.80593e-13
9.10952e-13
5.10912e-13
-8.73668e-13
-1.03223e-12
-1.44935e-12
-4.80602e-13
-1.02365e-12
-1.36827e-12
-1.38113e-12
-5.25802e-13
-2.22458e-13
-1.70497e-12
-1.09556e-12
-1.33074e-12
-9.94121e-13
-1.19774e-13
1.32193e-13
1.11105e-12
4.12115e-13
7.97184e-13
3.20685e-13
-8.28829e-13
-4.29574e-13
-2.24236e-12
-1.74774e-12
-1.72671e-12
-7.95808e-13
6.20995e-13
1.08325e-12
-2.84213e-14
4.73202e-13
8.93324e-13
1.1787e-12
1.26425e-12
1.78297e-12
2.31799e-12
2.1748e-12
2.97201e-12
1.95811e-12
1.01003e-12
1.62485e-12
1.1314e-12
1.76065e-12
2.54552e-12
1.84259e-12
8.21629e-13
3.55272e-13
-5.69042e-13
-1.37598e-12
-9.52511e-13
-8.46031e-14
-1.05774e-12
-1.35935e-12
-1.85679e-12
-2.09341e-12
-2.22001e-12
-1.71719e-12
-1.97906e-12
-2.38056e-12
-1.17929e-12
-1.26649e-12
-5.04617e-13
-1.09206e-13
6.24104e-13
9.04218e-13
3.57386e-13
8.89064e-13
6.39488e-13
1.34721e-12
1.27436e-12
1.79713e-12
1.26059e-12
5.06675e-13
4.70241e-13
5.96902e-13
1.67066e-12
1.73447e-12
3.4264e-12
3.37916e-12
2.93124e-12
3.17095e-12
2.51089e-12
2.43586e-12
3.18306e-12
1.20494e-12
1.25862e-12
8.44259e-13
7.88462e-13
1.72691e-12
1.06666e-12
1.6994e-13
-3.06198e-13
-3.872e-13
-2.49879e-13
-4.7595e-13
-2.39061e-12
-1.68219e-12
-1.53045e-12
-1.23041e-12
-1.9948e-12
-2.52864e-12
-2.32657e-12
-1.67985e-12
-1.05952e-12
-7.99003e-13
-1.13137e-12
-1.67705e-12
-1.38221e-12
-2.83768e-12
-1.51286e-12
-1.66414e-12
-1.38683e-12
-1.22333e-12
-1.72668e-12
-9.71949e-13
-8.23337e-13
-7.3217e-13
4.83169e-13
2.8592e-12
4.64257e-12
1.03822e-11
2.09299e-11
3.99608e-11
7.9219e-11
1.4983e-10
2.87409e-10
5.42109e-10
1.01502e-09
1.89171e-09
3.50243e-09
6.43808e-09
1.17604e-08
2.13323e-08
3.84361e-08
6.87862e-08
1.22264e-07
2.15823e-07
3.78342e-07
6.58595e-07
1.13833e-06
1.95343e-06
3.32791e-06
5.62802e-06
9.44737e-06
1.57398e-05
2.60246e-05
4.26996e-05
6.95152e-05
0.000112282
0.000179917
0.000285974
0.000450846
0.000704912
0.00109295
0.00168029
0.00256115
0.00387
0.00579649
0.00860498
0.0126596
0.0184556
0.0266579
0.0381479
0.0540775
0.075931
0.105593
0.145422
0.198319
0.267797
0.358036
0.473921
0.621051
0.805718
1.03484
1.31587
1.6566
2.065
2.54897
3.11606
3.77323
4.52653
5.38086
6.33981
7.40542
8.57817
9.8569
11.2389
12.7201
14.295
15.9572
17.6995
19.5141
21.3933
23.329
25.3135
27.3396
29.4007
31.4906
33.6041
35.7367
37.8846
40.0444
42.2138
44.3907
46.5736
48.7613
50.953
53.148
55.346
57.5467
59.75
61.9558
64.1642
66.3752
68.589
70.8056
73.0252
75.2481
77.4743
79.7042
81.9379
84.1757
86.4177
88.6644
90.9158
93.1722
95.434
97.7013
99.9743
102.253
104.539
106.831
109.129
111.435
113.738
116.049
118.366
120.69
123.021
125.359
127.704
130.056
132.416
134.783
137.157
139.539
141.928
144.324
146.728
149.139
151.556
153.981
156.413
158.852
161.297
163.749
166.208
168.674
171.147
173.626
176.113
178.606
181.106
183.614
186.129
188.651
191.18
193.717
196.261
198.814
201.374
203.942
206.517
209.101
211.694
214.294
216.902
219.519
222.144
224.778
227.419
230.069
232.726
235.392
238.065
240.747
243.436
246.134
248.839
251.552
254.273
257.001
259.738
262.482
265.234
267.994
270.762
273.536
276.32
279.11
281.904
284.712
287.526
290.346
293.172
296.008
298.85
301.698
304.554
307.417
310.284
313.158
316.038
318.923
321.813
324.708
327.608
330.513
333.422
336.335
339.252
342.172
345.094
348.019
350.945
353.872
356.799
359.725
362.648
365.566
368.394
371.387
374.76
)
;

boundaryField
{
    sideLeft
    {
        type            symmetryPlane;
        value           uniform 0;
    }
    sideRight
    {
        type            calculated;
        value           uniform 378.297;
    }
    topbottom
    {
        type            empty;
        value           nonuniform 0();
    }
    frontback
    {
        type            empty;
        value           nonuniform 0();
    }
}


// ************************************************************************* //
