/*--------------------------------*- C++ -*----------------------------------*\
| =========                 |                                                 |
| \\      /  F ield         | OpenFOAM: The Open Source CFD Toolbox           |
|  \\    /   O peration     | Version:  2.4.0                                 |
|   \\  /    A nd           | Web:      www.OpenFOAM.org                      |
|    \\/     M anipulation  |                                                 |
\*---------------------------------------------------------------------------*/
FoamFile
{
    version     2.0;
    format      ascii;
    class       surfaceScalarField;
    location    "0.05";
    object      phi.water;
}
// * * * * * * * * * * * * * * * * * * * * * * * * * * * * * * * * * * * * * //

dimensions      [0 3 -1 0 0 0 0];

internalField   nonuniform List<scalar> 
999
(
-9.38664e-13
-1.22843e-12
-5.38841e-13
1.03331e-12
8.95198e-13
-1.34302e-13
-1.42106e-14
-2.73761e-13
-2.68519e-14
-1.11671e-12
-1.47374e-12
-1.18273e-12
-2.03777e-12
-1.84799e-12
-5.1905e-13
1.02418e-12
4.83169e-13
6.79031e-13
-6.12953e-13
-1.37859e-12
-1.70696e-12
-1.62645e-12
-4.23116e-13
-1.05089e-12
-2.80375e-12
-2.45193e-12
-1.47204e-12
-1.35876e-12
-1.9446e-12
-3.56748e-12
-3.79509e-12
-2.77365e-12
-3.64902e-12
-3.74535e-12
-2.76525e-12
-2.37031e-12
-7.87771e-13
-1.94191e-12
-2.50102e-12
-2.1669e-12
-2.16613e-12
-2.59319e-12
-3.01064e-12
-3.62641e-12
-2.89933e-12
-2.59687e-12
-2.81611e-12
-3.13671e-12
-1.75728e-12
-2.23582e-12
-1.52433e-12
-3.93101e-13
3.9132e-13
1.36289e-12
1.20822e-12
1.2399e-12
2.42743e-13
8.95282e-13
1.57911e-12
1.28815e-12
1.28821e-12
1.70953e-12
9.13307e-13
2.30668e-12
1.79491e-12
1.02356e-12
9.26655e-13
4.10982e-13
4.44938e-13
5.35098e-13
1.67937e-12
1.0703e-12
1.9637e-12
1.72973e-12
9.65569e-13
-8.73264e-15
3.85371e-13
4.73396e-13
-2.84217e-13
-4.19518e-15
9.14568e-13
2.59324e-12
2.03466e-12
1.59989e-12
2.43833e-12
3.54356e-12
3.9081e-12
2.43412e-12
2.08076e-12
1.36337e-12
1.95142e-12
3.55272e-13
-2.54217e-14
6.16551e-13
8.52646e-14
9.14559e-13
1.7053e-13
3.12639e-13
-1.39996e-12
-2.34709e-13
-9.48277e-13
-5.8684e-13
-8.32005e-13
-7.561e-13
-1.28601e-12
-7.63229e-13
-1.018e-12
-6.75866e-13
-4.12115e-13
1.42109e-13
1.41839e-12
1.37604e-12
3.35735e-13
-5.2236e-14
-1.16221e-12
-5.30842e-13
-6.93172e-13
-1.63989e-12
-2.76425e-12
-3.09744e-12
-3.77728e-12
-2.71245e-12
-1.56225e-12
-2.24508e-12
-2.35418e-12
-3.31774e-12
-2.58677e-12
-2.06819e-12
-1.54504e-12
-8.33987e-13
-1.39629e-12
-3.4594e-13
-9.074e-13
-8.23816e-14
6.30334e-13
-4.4456e-13
-1.30689e-12
-9.09046e-13
-1.74968e-12
-1.97812e-12
-3.3582e-12
-3.95643e-12
-4.20904e-12
-3.91823e-12
-2.75951e-12
-2.18703e-12
-1.77504e-12
-1.56263e-12
-1.44286e-12
-1.64251e-12
-2.30613e-12
-1.67792e-12
-7.14346e-13
-1.42108e-13
2.43853e-13
-2.52414e-13
-9.58292e-14
-1.51328e-12
-9.37694e-13
-1.56231e-12
-1.49873e-12
-6.86957e-13
-2.43561e-13
8.41671e-13
6.82583e-13
4.39174e-13
-5.25802e-13
-2.93081e-14
2.28744e-13
-2.43444e-13
-2.10292e-13
2.55796e-13
-1.84741e-13
1.10671e-12
1.38067e-12
1.15395e-12
1.41595e-12
1.45082e-12
1.50803e-12
7.34401e-13
1.98952e-13
1.23722e-12
1.42967e-12
1.59984e-12
1.44947e-12
9.48409e-13
2.51576e-13
9.6171e-13
1.36191e-12
1.40112e-12
4.43427e-13
2.55795e-13
4.3083e-13
1.07064e-13
-7.2504e-13
-7.01932e-13
-2.85823e-13
3.73325e-13
-9.50518e-13
-7.08207e-13
-1.65885e-12
-7.02758e-13
-2.32614e-13
-7.99676e-13
-1.09895e-12
-3.72899e-13
-2.46732e-12
-1.96729e-12
-2.87678e-12
-2.02223e-12
-1.55991e-12
-1.18028e-12
-2.67545e-12
-2.67345e-12
-2.65652e-12
-3.02189e-12
-2.36389e-12
-1.64556e-12
-3.17451e-12
-1.53995e-12
-1.44711e-12
-1.41592e-12
-4.66064e-13
-3.97904e-13
-2.5059e-13
2.22017e-13
1.98631e-12
1.98284e-12
2.28028e-12
2.37841e-12
1.63521e-12
2.01079e-12
2.17421e-12
1.76355e-12
1.70807e-12
1.66471e-12
1.36999e-12
1.52246e-12
1.30029e-12
7.83159e-13
1.23826e-12
2.29962e-13
8.7476e-14
-2.84219e-14
-9.54228e-13
8.81344e-14
7.03607e-13
-2.97251e-13
1.84741e-13
1.10423e-12
-3.21789e-13
-5.11549e-13
-1.47451e-13
5.10805e-13
1.41117e-12
1.83913e-12
1.53392e-12
7.20599e-13
-8.08376e-13
-8.17395e-13
-1.85577e-13
-3.13255e-13
4.40536e-13
8.02067e-13
1.17438e-12
-6.31723e-13
-9.76168e-13
-7.15928e-13
8.43582e-13
1.69596e-12
5.65946e-14
-1.4211e-14
1.47249e-13
4.37183e-13
1.13687e-13
-1.13686e-13
1.5386e-12
1.85352e-12
1.38584e-12
8.85502e-13
7.09482e-13
1.27298e-12
1.34492e-12
1.21293e-12
1.22286e-12
1.64258e-12
1.38655e-12
3.1475e-12
3.66336e-12
3.76884e-12
3.21923e-12
3.91292e-12
5.81577e-12
4.26398e-12
2.69726e-12
1.42467e-12
6.39488e-13
-5.57692e-13
-1.88517e-12
-3.43728e-12
-3.01692e-12
-3.04443e-12
-2.90861e-12
-1.39583e-12
-1.01503e-12
-1.49763e-12
-1.70111e-12
-1.46573e-12
-6.7206e-13
-6.55043e-13
-1.62135e-12
-1.33444e-12
-1.97008e-12
-2.33251e-12
-2.87382e-12
-1.95157e-12
-2.49997e-12
-1.72085e-12
-5.90638e-13
1.00461e-12
8.82662e-13
3.69482e-13
1.3517e-12
9.77539e-13
1.25164e-12
1.9481e-12
1.62341e-12
9.11559e-13
1.08386e-12
1.72571e-12
1.95445e-12
1.06482e-12
2.01611e-12
1.70283e-12
1.1318e-12
1.43891e-12
2.57678e-12
2.64683e-12
1.61662e-12
1.62607e-12
1.06364e-12
4.06611e-13
3.69642e-13
1.88748e-12
1.48535e-12
1.28726e-12
9.96551e-13
-1.37763e-13
8.78112e-14
-8.8819e-13
-1.42915e-12
-1.75135e-12
-3.09738e-12
-1.9496e-12
-5.06948e-13
1.14831e-12
1.77593e-12
1.33372e-12
1.03402e-12
2.13071e-13
1.84741e-13
2.57201e-13
-2.98427e-13
3.59383e-13
2.15841e-13
1.23155e-12
1.04988e-12
3.41017e-13
-9.63893e-13
-4.68958e-13
-3.26078e-13
-1.7778e-12
-8.98145e-13
4.18678e-19
-1.18095e-12
-7.8104e-13
-2.17549e-12
-2.80263e-12
-2.57308e-12
-1.27121e-12
-1.28876e-12
-2.77988e-12
-2.71941e-12
-3.25078e-12
-3.04031e-12
-2.47214e-12
-1.84754e-12
-5.08785e-13
-6.14244e-13
-1.1022e-12
-7.36389e-13
-6.30478e-13
-1.40486e-12
-1.11287e-12
-9.78883e-13
-4.12115e-13
-1.0471e-12
6.77163e-13
6.72468e-13
3.53358e-13
2.84217e-13
-9.23705e-13
-1.13202e-12
-1.16761e-12
-1.23922e-12
-2.03853e-12
-2.40471e-12
-1.8988e-12
-5.30214e-13
3.59674e-13
9.08449e-13
1.06921e-12
1.20442e-12
2.99689e-13
8.28012e-13
-4.26325e-14
-5.16093e-13
-8.64915e-13
-1.72849e-13
6.72102e-13
2.19869e-12
2.0251e-12
2.07586e-12
2.06009e-12
1.82631e-12
2.49451e-12
1.94335e-12
1.45066e-12
4.34928e-13
2.12389e-13
7.3104e-13
1.25506e-13
-1.09548e-12
-6.537e-13
-2.88346e-13
-1.83557e-13
6.07058e-13
2.6649e-13
1.7053e-13
-4.26325e-14
-1.5486e-12
-2.52882e-12
-1.60212e-12
-1.21103e-12
-9.06943e-13
-2.87527e-14
2.79312e-13
7.26499e-13
4.93905e-13
4.48803e-13
2.41585e-13
3.61907e-13
-5.86344e-13
-1.24476e-12
-3.69482e-13
2.84379e-13
-5.55724e-13
-5.38026e-13
-2.94743e-13
-1.05796e-13
4.87492e-13
-1.91714e-13
-1.08648e-13
1.24583e-12
1.701e-12
1.56068e-12
3.11744e-14
-1.37477e-12
-3.71343e-13
-7.9969e-13
-1.71426e-12
-1.21095e-12
-9.89725e-13
-1.2578e-12
-3.24656e-14
8.17121e-13
1.87743e-12
8.10018e-13
-4.01179e-13
-2.22351e-13
-2.26271e-14
3.7238e-13
1.66877e-12
9.83662e-13
1.72888e-12
1.85622e-12
1.59145e-12
8.59833e-13
1.02429e-12
8.63774e-13
1.10175e-13
-5.11611e-13
-6.3929e-13
-7.54841e-13
-6.0636e-13
-1.26635e-12
-1.23369e-12
-6.81777e-13
-1.04557e-12
-9.05358e-13
-1.90307e-12
-1.80531e-12
-1.60448e-12
-1.22297e-12
-2.89834e-12
-2.68106e-12
-3.11508e-12
-3.46493e-12
-3.29768e-12
-1.81228e-12
-1.81599e-12
-1.26227e-12
-3.45078e-14
1.26454e-12
1.16814e-12
1.55196e-12
1.30537e-12
2.57844e-12
1.80101e-12
1.27484e-12
5.03435e-13
3.68306e-13
3.2685e-13
-1.08549e-12
-1.66277e-12
-1.89053e-12
-1.59358e-12
-2.47092e-12
-2.21236e-12
-2.609e-12
-3.30564e-13
-1.6098e-13
1.08979e-12
-1.73098e-13
4.54747e-13
1.08419e-12
1.32507e-12
6.15193e-13
1.4039e-13
1.04649e-12
8.6596e-13
4.08664e-13
7.10544e-14
-2.15302e-13
-9.34952e-13
-9.76575e-13
-2.31813e-13
9.48163e-14
1.16065e-12
6.76695e-13
5.29366e-13
-3.99329e-13
-9.69568e-13
-2.09264e-12
-2.20509e-12
-6.82121e-13
4.40537e-13
1.19755e-12
9.89711e-13
5.23992e-13
1.94683e-12
2.45494e-12
2.05007e-12
2.23379e-12
2.99906e-12
2.24634e-12
7.07204e-13
4.28449e-14
-1.07463e-12
-1.59661e-12
-1.16461e-12
-1.17237e-12
-1.46073e-12
-1.64427e-12
-1.55969e-12
-1.57889e-12
-2.41585e-13
-3.63295e-13
-2.13163e-13
-3.12621e-13
6.92362e-13
2.03013e-12
1.66576e-12
2.59083e-12
2.02123e-12
1.40639e-12
8.07798e-13
-5.68434e-14
-1.65065e-13
-2.27374e-13
-2.32775e-13
9.9725e-14
3.7131e-13
1.6749e-12
2.43141e-12
3.89729e-12
4.40178e-12
4.38488e-12
3.92001e-12
4.25153e-12
2.9524e-12
2.93455e-12
3.73676e-12
4.48617e-12
4.07471e-12
3.08795e-12
2.50863e-12
2.56358e-12
3.11672e-12
1.57329e-12
1.34095e-12
4.94232e-13
4.34836e-13
2.27374e-13
9.25982e-14
-7.20852e-14
-1.10831e-12
-1.83339e-12
-1.03041e-12
-2.81138e-12
-2.95055e-12
-1.85414e-12
-2.08459e-12
-1.88456e-12
-3.66988e-13
-6.2169e-13
2.13975e-13
3.12484e-13
5.14601e-13
9.16597e-13
9.33858e-13
8.39951e-13
6.13263e-13
1.87682e-13
-2.18351e-13
1.69544e-13
1.42104e-14
-3.23847e-13
-2.84217e-13
-3.49831e-13
-1.23895e-12
-3.21242e-13
3.96863e-13
1.09273e-13
1.54044e-13
-6.12354e-13
-7.53228e-13
-7.79592e-13
-7.1054e-14
3.65435e-13
-2.57803e-13
-9.86446e-13
-1.63374e-12
-2.04784e-12
-1.90743e-12
-1.45675e-12
-2.18837e-12
-2.59083e-12
-1.75524e-12
-1.63774e-12
-1.79181e-12
-1.85497e-12
-1.30659e-12
-7.65632e-13
-5.57575e-13
3.66906e-13
7.40422e-13
8.51972e-13
-5.89451e-13
-1.60066e-12
-1.50619e-12
-4.23758e-13
-7.96279e-13
-1.42511e-12
-1.38113e-12
-4.68958e-13
-3.36145e-13
-1.70497e-12
-1.32293e-12
-1.10337e-12
-8.2359e-13
-1.76617e-13
-9.5181e-14
1.45211e-12
4.68958e-13
5.12967e-13
7.18589e-13
-1.11305e-12
-7.13791e-13
-1.84446e-12
-1.6909e-12
-2.18146e-12
-5.68434e-13
6.77839e-13
1.19694e-12
3.69483e-13
3.59515e-13
1.17754e-12
7.808e-13
1.09372e-12
2.23772e-12
1.63587e-12
2.57271e-12
2.80148e-12
2.12864e-12
1.29425e-12
1.11326e-12
1.24509e-12
1.59012e-12
2.82974e-12
1.61522e-12
1.10585e-12
2.98428e-13
-1.13748e-12
-6.37015e-13
-1.0662e-12
-1.41447e-13
-7.16677e-13
-1.01829e-12
-2.48207e-12
-1.86604e-12
-2.16316e-12
-1.88772e-12
-1.80853e-12
-2.15319e-12
-1.52035e-12
-1.1528e-12
-8.45678e-13
2.88697e-13
5.67261e-13
7.33688e-13
6.41603e-13
6.04847e-13
6.39488e-13
1.17668e-12
1.72911e-12
1.68344e-12
1.26059e-12
4.49831e-13
3.56554e-13
4.26372e-13
1.84119e-12
1.905e-12
3.19903e-12
3.15178e-12
3.04493e-12
3.17095e-12
2.62458e-12
2.26533e-12
3.52412e-12
1.37548e-12
1.14494e-12
6.16886e-13
7.31619e-13
1.89744e-12
1.18035e-12
1.13096e-13
-4.76728e-13
-2.73513e-13
-3.06722e-13
-4.19106e-13
-2.33376e-12
-1.45482e-12
-1.75782e-12
-1.45778e-12
-1.9948e-12
-2.18758e-12
-2.0992e-12
-1.96407e-12
-1.23005e-12
-7.4216e-13
-1.18821e-12
-1.44968e-12
-1.83695e-12
-2.43978e-12
-1.39917e-12
-1.2094e-12
-1.89842e-12
-1.56439e-12
-1.72668e-12
-6.30888e-13
-1.05071e-12
-4.47953e-13
5.40013e-13
2.63182e-12
5.26785e-12
9.87059e-12
2.05889e-11
3.94492e-11
7.88211e-11
1.4858e-10
2.85249e-10
5.38016e-10
1.00797e-09
1.87897e-09
3.47867e-09
6.39675e-09
1.16862e-08
2.12004e-08
3.82048e-08
6.8382e-08
1.21564e-07
2.14621e-07
3.7629e-07
6.55121e-07
1.13249e-06
1.9437e-06
3.31182e-06
5.60163e-06
9.40444e-06
1.56706e-05
2.59138e-05
4.25239e-05
6.92388e-05
0.000111851
0.000179252
0.000284956
0.000449304
0.000702595
0.00108951
0.00167521
0.00255376
0.00385933
0.00578125
0.00858346
0.0126295
0.018414
0.0266011
0.0380713
0.0539752
0.0757961
0.105418
0.145197
0.198033
0.267439
0.357594
0.473382
0.620404
0.804954
1.03395
1.31485
1.65544
2.06372
2.54757
3.11456
3.77164
4.52488
5.37918
6.33812
7.40376
8.57657
9.8554
11.2375
12.7188
14.2939
15.9562
17.6987
19.5135
21.3928
23.3287
25.3133
27.3396
29.4007
31.4908
33.6044
35.737
37.8849
40.0448
42.2142
44.3912
46.5741
48.7618
50.9534
53.1485
55.3464
57.5471
59.7504
61.9563
64.1646
66.3756
68.5894
70.806
73.0256
75.2484
77.4747
79.7046
81.9383
84.176
86.4181
88.6647
90.9161
93.1726
95.4343
97.7016
99.9747
102.254
104.539
106.831
109.13
111.435
113.739
116.049
118.366
120.69
123.021
125.359
127.704
130.057
132.416
134.783
137.157
139.539
141.928
144.324
146.728
149.139
151.557
153.981
156.413
158.852
161.297
163.75
166.209
168.675
171.147
173.627
176.113
178.606
181.107
183.614
186.129
188.651
191.18
193.717
196.262
198.814
201.374
203.942
206.518
209.102
211.694
214.294
216.903
219.52
222.145
224.778
227.419
230.069
232.726
235.392
238.066
240.747
243.436
246.134
248.839
251.552
254.273
257.001
259.738
262.482
265.234
267.994
270.762
273.537
276.32
279.11
281.905
284.712
287.526
290.346
293.172
296.009
298.85
301.698
304.554
307.417
310.285
313.158
316.038
318.923
321.813
324.708
327.608
330.513
333.422
336.335
339.252
342.172
345.094
348.019
350.945
353.872
356.799
359.725
362.648
365.567
368.397
371.395
374.758
)
;

boundaryField
{
    sideLeft
    {
        type            symmetryPlane;
        value           uniform 0;
    }
    sideRight
    {
        type            calculated;
        value           uniform 1348.69;
    }
    topbottom
    {
        type            empty;
        value           nonuniform 0();
    }
    frontback
    {
        type            empty;
        value           nonuniform 0();
    }
}


// ************************************************************************* //
