/*--------------------------------*- C++ -*----------------------------------*\
| =========                 |                                                 |
| \\      /  F ield         | OpenFOAM: The Open Source CFD Toolbox           |
|  \\    /   O peration     | Version:  2.4.0                                 |
|   \\  /    A nd           | Web:      www.OpenFOAM.org                      |
|    \\/     M anipulation  |                                                 |
\*---------------------------------------------------------------------------*/
FoamFile
{
    version     2.0;
    format      ascii;
    class       volVectorField;
    location    "0.05";
    object      U;
}
// * * * * * * * * * * * * * * * * * * * * * * * * * * * * * * * * * * * * * //

dimensions      [0 1 -1 0 0 0 0];

internalField   nonuniform List<vector> 
1000
(
(-1.49213e-13 0 0)
(-2.98428e-13 0 0)
(-3.33955e-13 0 0)
(9.94758e-14 0 0)
(1.77636e-13 0 0)
(1.91846e-13 0 0)
(4.26328e-14 0 0)
(-1.06581e-13 0 0)
(2.84217e-14 0 0)
(-2.84218e-14 0 0)
(-3.69482e-13 0 0)
(-3.69482e-13 0 0)
(-2.77112e-13 0 0)
(-4.90274e-13 0 0)
(-3.33955e-13 0 0)
(-1.42106e-14 0 0)
(2.98428e-13 0 0)
(8.52652e-14 0 0)
(1.06581e-13 0 0)
(-3.33955e-13 0 0)
(-4.19221e-13 0 0)
(-4.26325e-13 0 0)
(-2.20268e-13 0 0)
(-1.42108e-14 0 0)
(-4.61853e-13 0 0)
(-7.17648e-13 0 0)
(-5.32907e-13 0 0)
(-3.05534e-13 0 0)
(-3.97904e-13 0 0)
(-6.32383e-13 0 0)
(-9.52127e-13 0 0)
(-7.81597e-13 0 0)
(-9.30811e-13 0 0)
(-9.30811e-13 0 0)
(-7.38965e-13 0 0)
(-6.11066e-13 0 0)
(-3.19745e-13 0 0)
(-4.61852e-13 0 0)
(-4.83169e-13 0 0)
(-6.75015e-13 0 0)
(-4.26326e-13 0 0)
(-5.25801e-13 0 0)
(-6.03961e-13 0 0)
(-8.81073e-13 0 0)
(-8.02913e-13 0 0)
(-6.6791e-13 0 0)
(-6.46594e-13 0 0)
(-8.17124e-13 0 0)
(-6.89226e-13 0 0)
(-4.40537e-13 0 0)
(-3.76587e-13 0 0)
(-2.13163e-13 0 0)
(-7.10541e-14 0 0)
(2.91322e-13 0 0)
(3.05533e-13 0 0)
(3.48166e-13 0 0)
(2.06057e-13 0 0)
(9.94761e-14 0 0)
(2.98428e-13 0 0)
(2.98428e-13 0 0)
(2.84217e-13 0 0)
(4.40536e-13 0 0)
(2.98428e-13 0 0)
(3.33955e-13 0 0)
(5.40012e-13 0 0)
(3.19744e-13 0 0)
(1.91846e-13 0 0)
(1.7053e-13 0 0)
(4.97382e-14 0 0)
(1.20792e-13 0 0)
(3.83693e-13 0 0)
(2.34479e-13 0 0)
(1.98952e-13 0 0)
(6.60805e-13 0 0)
(2.91322e-13 0 0)
(1.42111e-14 0 0)
(8.52648e-14 0 0)
(1.06582e-13 0 0)
(2.84217e-14 0 0)
(-9.23706e-14 0 0)
(6.39487e-14 0 0)
(5.8975e-13 0 0)
(5.04485e-13 0 0)
(3.62377e-13 0 0)
(4.33431e-13 0 0)
(7.67386e-13 0 0)
(9.9476e-13 0 0)
(7.31859e-13 0 0)
(5.61329e-13 0 0)
(4.26326e-13 0 0)
(4.1922e-13 0 0)
(2.70006e-13 0 0)
(-9.94758e-14 0 0)
(1.77636e-13 0 0)
(2.13163e-14 0 0)
(1.20792e-13 0 0)
(2.27374e-13 0 0)
(1.42106e-14 0 0)
(-2.62901e-13 0 0)
(-2.20268e-13 0 0)
(-7.10541e-14 0 0)
(-1.13687e-13 0 0)
(-2.70006e-13 0 0)
(-1.49214e-13 0 0)
(-1.84741e-13 0 0)
(-3.2685e-13 0 0)
(-2.77112e-13 0 0)
(-2.20268e-13 0 0)
(-3.5527e-14 0 0)
(-2.13164e-14 0 0)
(5.68436e-14 0 0)
(3.55271e-13 0 0)
(3.33955e-13 0 0)
(-3.55272e-14 0 0)
(-1.91846e-13 0 0)
(-1.77636e-13 0 0)
(-1.91847e-13 0 0)
(-1.84741e-13 0 0)
(-6.75016e-13 0 0)
(-6.32383e-13 0 0)
(-9.66338e-13 0 0)
(-7.88702e-13 0 0)
(-4.9738e-13 0 0)
(-4.68958e-13 0 0)
(-4.90275e-13 0 0)
(-7.95808e-13 0 0)
(-6.60805e-13 0 0)
(-6.18172e-13 0 0)
(-3.55272e-13 0 0)
(-4.40536e-13 0 0)
(-1.91847e-13 0 0)
(-2.27373e-13 0 0)
(-9.94761e-14 0 0)
(-1.98952e-13 0 0)
(8.5265e-14 0 0)
(9.94762e-14 0 0)
(-1.42109e-13 0 0)
(-3.12639e-13 0 0)
(-3.12639e-13 0 0)
(-4.54747e-13 0 0)
(-7.10543e-13 0 0)
(-9.02389e-13 0 0)
(-1.05871e-12 0 0)
(-9.59233e-13 0 0)
(-8.24229e-13 0 0)
(-6.32383e-13 0 0)
(-4.90275e-13 0 0)
(-4.05009e-13 0 0)
(-4.1922e-13 0 0)
(-3.41061e-13 0 0)
(-3.4106e-13 0 0)
(-5.89751e-13 0 0)
(-2.62901e-13 0 0)
(-7.10542e-14 0 0)
(-2.84218e-14 0 0)
(1.56319e-13 0 0)
(7.10535e-15 0 0)
(-3.4106e-13 0 0)
(-3.05533e-13 0 0)
(-2.77112e-13 0 0)
(-4.1922e-13 0 0)
(-2.70006e-13 0 0)
(-1.20792e-13 0 0)
(1.49214e-13 0 0)
(1.42109e-13 0 0)
(1.98952e-13 0 0)
(-1.77636e-13 0 0)
(1.42106e-14 0 0)
(-2.13162e-14 0 0)
(7.10545e-14 0 0)
(-4.97382e-14 0 0)
(-7.10543e-14 0 0)
(-5.68433e-14 0 0)
(1.49214e-13 0 0)
(2.91323e-13 0 0)
(2.55795e-13 0 0)
(3.76588e-13 0 0)
(4.40536e-13 0 0)
(3.97904e-13 0 0)
(1.63425e-13 0 0)
(1.06581e-13 0 0)
(1.20792e-13 0 0)
(4.12115e-13 0 0)
(3.41061e-13 0 0)
(2.70006e-13 0 0)
(3.55272e-13 0 0)
(2.20268e-13 0 0)
(5.6844e-14 0 0)
(3.48165e-13 0 0)
(3.19745e-13 0 0)
(2.41584e-13 0 0)
(6.3949e-14 0 0)
(1.13687e-13 0 0)
(2.13163e-14 0 0)
(-7.10542e-14 0 0)
(-2.27374e-13 0 0)
(-1.49214e-13 0 0)
(5.68434e-14 0 0)
(7.10544e-14 0 0)
(-2.20268e-13 0 0)
(-3.05534e-13 0 0)
(-2.91322e-13 0 0)
(-7.10545e-14 0 0)
(-1.42108e-13 0 0)
(-3.12639e-13 0 0)
(-1.42108e-13 0 0)
(-2.91323e-13 0 0)
(-5.40012e-13 0 0)
(-6.96332e-13 0 0)
(-6.03961e-13 0 0)
(-3.90799e-13 0 0)
(-2.84217e-13 0 0)
(-4.54747e-13 0 0)
(-6.46594e-13 0 0)
(-7.67386e-13 0 0)
(-6.6791e-13 0 0)
(-6.25278e-13 0 0)
(-4.90275e-13 0 0)
(-5.32907e-13 0 0)
(-5.61329e-13 0 0)
(-4.26326e-13 0 0)
(-3.90798e-13 0 0)
(-2.27374e-13 0 0)
(-7.10544e-14 0 0)
(-9.23702e-14 0 0)
(-1.06582e-13 0 0)
(3.62377e-13 0 0)
(4.12115e-13 0 0)
(4.90274e-13 0 0)
(6.82121e-13 0 0)
(5.25802e-13 0 0)
(4.26326e-13 0 0)
(5.82645e-13 0 0)
(4.47642e-13 0 0)
(4.05009e-13 0 0)
(4.33431e-13 0 0)
(2.27374e-13 0 0)
(4.1922e-13 0 0)
(4.40536e-13 0 0)
(1.84741e-13 0 0)
(1.7053e-13 0 0)
(2.84217e-13 0 0)
(9.94763e-14 0 0)
(-3.68392e-19 0 0)
(-1.42108e-13 0 0)
(-2.84219e-14 0 0)
(2.84219e-14 0 0)
(7.81596e-14 0 0)
(-9.23704e-14 0 0)
(1.63425e-13 0 0)
(1.63425e-13 0 0)
(-1.42109e-13 0 0)
(-1.49214e-13 0 0)
(5.68436e-14 0 0)
(2.34479e-13 0 0)
(5.18696e-13 0 0)
(3.97904e-13 0 0)
(2.06058e-13 0 0)
(5.6843e-14 0 0)
(-2.98427e-13 0 0)
(-1.35004e-13 0 0)
(-1.49214e-13 0 0)
(1.20792e-13 0 0)
(9.9476e-14 0 0)
(1.91847e-13 0 0)
(1.63425e-13 0 0)
(-2.84217e-13 0 0)
(-1.70531e-13 0 0)
(-2.84214e-14 0 0)
(3.97904e-13 0 0)
(1.5632e-13 0 0)
(7.10528e-15 0 0)
(-3.55271e-14 0 0)
(1.49214e-13 0 0)
(4.26325e-14 0 0)
(-2.13164e-14 0 0)
(1.91847e-13 0 0)
(3.4106e-13 0 0)
(3.97904e-13 0 0)
(3.55271e-13 0 0)
(1.42109e-13 0 0)
(2.62901e-13 0 0)
(3.4106e-13 0 0)
(2.13163e-13 0 0)
(3.62376e-13 0 0)
(3.76588e-13 0 0)
(3.83693e-13 0 0)
(5.54224e-13 0 0)
(8.10019e-13 0 0)
(9.23706e-13 0 0)
(9.37916e-13 0 0)
(7.74492e-13 0 0)
(1.18661e-12 0 0)
(1.37135e-12 0 0)
(9.23705e-13 0 0)
(4.47642e-13 0 0)
(1.5632e-13 0 0)
(-7.10546e-14 0 0)
(-2.06057e-13 0 0)
(-7.24753e-13 0 0)
(-8.10019e-13 0 0)
(-6.39488e-13 0 0)
(-7.31859e-13 0 0)
(-5.11591e-13 0 0)
(-4.26325e-13 0 0)
(-3.55272e-13 0 0)
(-3.12639e-13 0 0)
(-3.83693e-13 0 0)
(-2.41584e-13 0 0)
(-7.81597e-14 0 0)
(-1.98952e-13 0 0)
(-4.12115e-13 0 0)
(-3.76588e-13 0 0)
(-5.25801e-13 0 0)
(-6.75016e-13 0 0)
(-6.53699e-13 0 0)
(-6.96332e-13 0 0)
(-4.76064e-13 0 0)
(-2.70006e-13 0 0)
(4.97378e-14 0 0)
(3.19744e-13 0 0)
(1.20792e-13 0 0)
(9.23704e-14 0 0)
(3.33955e-13 0 0)
(3.69482e-13 0 0)
(2.98428e-13 0 0)
(4.40537e-13 0 0)
(3.05533e-13 0 0)
(1.63425e-13 0 0)
(2.91323e-13 0 0)
(4.54747e-13 0 0)
(3.97904e-13 0 0)
(4.47642e-13 0 0)
(4.61852e-13 0 0)
(2.98428e-13 0 0)
(3.12639e-13 0 0)
(6.03961e-13 0 0)
(6.75016e-13 0 0)
(4.12115e-13 0 0)
(3.83693e-13 0 0)
(4.26326e-13 0 0)
(1.13687e-13 0 0)
(7.81596e-14 0 0)
(2.4869e-13 0 0)
(5.04485e-13 0 0)
(2.70007e-13 0 0)
(2.84217e-13 0 0)
(9.94765e-14 0 0)
(-7.10582e-15 0 0)
(-1.7053e-13 0 0)
(-2.77112e-13 0 0)
(-3.19744e-13 0 0)
(-6.18172e-13 0 0)
(-6.39488e-13 0 0)
(-3.55271e-13 0 0)
(9.23704e-14 0 0)
(3.33955e-13 0 0)
(5.18696e-13 0 0)
(3.48166e-13 0 0)
(5.68434e-14 0 0)
(2.84217e-14 0 0)
(-2.84219e-14 0 0)
(-6.39487e-14 0 0)
(7.10556e-15 0 0)
(9.23704e-14 0 0)
(2.55795e-13 0 0)
(2.70006e-13 0 0)
(1.91846e-13 0 0)
(-1.35003e-13 0 0)
(-1.42109e-13 0 0)
(-1.42109e-14 0 0)
(-3.62377e-13 0 0)
(-3.33955e-13 0 0)
(1.42107e-14 0 0)
(-1.56319e-13 0 0)
(-1.13687e-13 0 0)
(-4.05009e-13 0 0)
(-6.18172e-13 0 0)
(-6.89226e-13 0 0)
(-4.26326e-13 0 0)
(-3.55271e-13 0 0)
(-4.12115e-13 0 0)
(-6.6791e-13 0 0)
(-7.88702e-13 0 0)
(-8.17124e-13 0 0)
(-7.53175e-13 0 0)
(-4.19221e-13 0 0)
(-3.4106e-13 0 0)
(-3.55275e-14 0 0)
(-3.4106e-13 0 0)
(-1.20792e-13 0 0)
(-1.20792e-13 0 0)
(-3.2685e-13 0 0)
(-2.91322e-13 0 0)
(-2.13163e-13 0 0)
(-5.68432e-14 0 0)
(-2.20268e-13 0 0)
(-1.98952e-13 0 0)
(2.70006e-13 0 0)
(1.20792e-13 0 0)
(7.10542e-14 0 0)
(-7.81598e-14 0 0)
(-2.41584e-13 0 0)
(-3.05534e-13 0 0)
(-2.55795e-13 0 0)
(-3.62377e-13 0 0)
(-5.40013e-13 0 0)
(-4.76064e-13 0 0)
(-3.90798e-13 0 0)
(7.10532e-15 0 0)
(1.98952e-13 0 0)
(2.98428e-13 0 0)
(2.34479e-13 0 0)
(2.13163e-13 0 0)
(4.26324e-14 0 0)
(2.20268e-13 0 0)
(-6.3949e-14 0 0)
(-2.62901e-13 0 0)
(-1.91846e-13 0 0)
(1.49214e-13 0 0)
(3.62377e-13 0 0)
(4.05009e-13 0 0)
(5.54224e-13 0 0)
(6.25277e-13 0 0)
(4.9738e-13 0 0)
(5.11591e-13 0 0)
(5.11591e-13 0 0)
(4.12115e-13 0 0)
(1.98952e-13 0 0)
(8.52653e-14 0 0)
(6.39486e-14 0 0)
(2.06058e-13 0 0)
(-1.42108e-13 0 0)
(-2.34479e-13 0 0)
(-1.13687e-13 0 0)
(-9.94759e-14 0 0)
(1.77636e-13 0 0)
(2.13165e-14 0 0)
(1.13687e-13 0 0)
(-3.55268e-14 0 0)
(-7.816e-14 0 0)
(-5.04485e-13 0 0)
(-5.96856e-13 0 0)
(-4.76064e-13 0 0)
(-9.9476e-14 0 0)
(-9.23706e-14 0 0)
(-7.10542e-14 0 0)
(2.62901e-13 0 0)
(1.63425e-13 0 0)
(2.4869e-13 0 0)
(-2.84217e-14 0 0)
(1.42109e-14 0 0)
(9.94758e-14 0 0)
(-3.69482e-13 0 0)
(-2.06057e-13 0 0)
(9.94757e-14 0 0)
(-2.13162e-14 0 0)
(-1.13687e-13 0 0)
(-9.23707e-14 0 0)
(-1.91846e-13 0 0)
(1.13686e-13 0 0)
(-6.39485e-14 0 0)
(-1.42111e-14 0 0)
(5.68437e-14 0 0)
(3.76587e-13 0 0)
(4.47642e-13 0 0)
(2.98428e-13 0 0)
(-1.84741e-13 0 0)
(-2.4869e-13 0 0)
(-1.7053e-13 0 0)
(-3.19744e-13 0 0)
(-3.4106e-13 0 0)
(-3.12639e-13 0 0)
(-3.41061e-13 0 0)
(-1.35003e-13 0 0)
(1.42108e-13 0 0)
(3.83693e-13 0 0)
(2.41584e-13 0 0)
(-2.84215e-14 0 0)
(7.10542e-14 0 0)
(-2.20268e-13 0 0)
(-7.1056e-15 0 0)
(2.91323e-13 0 0)
(4.12115e-13 0 0)
(3.48166e-13 0 0)
(4.0501e-13 0 0)
(3.83693e-13 0 0)
(3.55271e-13 0 0)
(2.4869e-13 0 0)
(2.77112e-13 0 0)
(8.52651e-14 0 0)
(-8.52651e-14 0 0)
(-8.52652e-14 0 0)
(-1.56319e-13 0 0)
(-1.63425e-13 0 0)
(-1.98952e-13 0 0)
(-2.91322e-13 0 0)
(-3.55271e-13 0 0)
(-2.41584e-13 0 0)
(-1.27898e-13 0 0)
(-3.05533e-13 0 0)
(-5.18696e-13 0 0)
(-3.69482e-13 0 0)
(-2.84217e-13 0 0)
(-5.54223e-13 0 0)
(-6.96332e-13 0 0)
(-8.3844e-13 0 0)
(-6.96332e-13 0 0)
(-8.95284e-13 0 0)
(-6.25278e-13 0 0)
(-4.33431e-13 0 0)
(-2.84217e-13 0 0)
(-2.77112e-13 0 0)
(2.13163e-13 0 0)
(3.76588e-13 0 0)
(2.98428e-13 0 0)
(3.76588e-13 0 0)
(3.83693e-13 0 0)
(5.82645e-13 0 0)
(3.33955e-13 0 0)
(3.19744e-13 0 0)
(1.13687e-13 0 0)
(4.97379e-14 0 0)
(-1.20792e-13 0 0)
(-3.33955e-13 0 0)
(-5.40012e-13 0 0)
(-2.98428e-13 0 0)
(-3.90798e-13 0 0)
(-5.7554e-13 0 0)
(-7.31859e-13 0 0)
(-3.19745e-13 0 0)
(-8.52649e-14 0 0)
(6.39486e-14 0 0)
(2.4869e-13 0 0)
(2.1316e-14 0 0)
(1.13687e-13 0 0)
(1.91846e-13 0 0)
(2.13163e-13 0 0)
(1.84741e-13 0 0)
(2.13163e-13 0 0)
(2.27374e-13 0 0)
(1.7053e-13 0 0)
(1.06582e-13 0 0)
(-7.81599e-14 0 0)
(-2.13163e-13 0 0)
(-2.70006e-13 0 0)
(-1.20792e-13 0 0)
(-4.26325e-14 0 0)
(1.49214e-13 0 0)
(2.4869e-13 0 0)
(2.13163e-13 0 0)
(-2.84217e-14 0 0)
(-1.06581e-13 0 0)
(-3.76588e-13 0 0)
(-5.32907e-13 0 0)
(-3.05533e-13 0 0)
(-5.68434e-14 0 0)
(1.35003e-13 0 0)
(2.34479e-13 0 0)
(2.13163e-13 0 0)
(2.98428e-13 0 0)
(5.96856e-13 0 0)
(4.83169e-13 0 0)
(6.11067e-13 0 0)
(6.96332e-13 0 0)
(6.18172e-13 0 0)
(4.33431e-13 0 0)
(9.23706e-14 0 0)
(-1.84741e-13 0 0)
(-3.62377e-13 0 0)
(-2.55796e-13 0 0)
(-3.62377e-13 0 0)
(-3.19744e-13 0 0)
(-3.55271e-13 0 0)
(-4.61853e-13 0 0)
(-3.62377e-13 0 0)
(-1.42109e-13 0 0)
(-7.10543e-14 0 0)
(-7.81595e-14 0 0)
(-2.84218e-14 0 0)
(-4.26326e-14 0 0)
(2.4869e-13 0 0)
(3.83693e-13 0 0)
(6.46594e-13 0 0)
(6.82121e-13 0 0)
(4.68958e-13 0 0)
(1.5632e-13 0 0)
(3.55269e-14 0 0)
(-8.52649e-14 0 0)
(4.97377e-14 0 0)
(-9.94757e-14 0 0)
(4.26322e-14 0 0)
(2.13166e-14 0 0)
(1.84741e-13 0 0)
(5.54223e-13 0 0)
(8.45546e-13 0 0)
(1.00897e-12 0 0)
(1.08002e-12 0 0)
(1.02318e-12 0 0)
(9.37917e-13 0 0)
(9.09495e-13 0 0)
(8.10019e-13 0 0)
(8.31335e-13 0 0)
(9.73444e-13 0 0)
(1.08713e-12 0 0)
(8.38441e-13 0 0)
(6.96332e-13 0 0)
(5.96856e-13 0 0)
(7.17648e-13 0 0)
(5.82645e-13 0 0)
(3.76587e-13 0 0)
(2.20268e-13 0 0)
(1.49214e-13 0 0)
(1.06581e-13 0 0)
(-7.10534e-15 0 0)
(6.39485e-14 0 0)
(-2.34478e-13 0 0)
(-2.20269e-13 0 0)
(-3.83693e-13 0 0)
(-4.61853e-13 0 0)
(-7.24753e-13 0 0)
(-5.7554e-13 0 0)
(-4.26326e-13 0 0)
(-4.83169e-13 0 0)
(-3.76588e-13 0 0)
(-1.20792e-13 0 0)
(2.13164e-14 0 0)
(1.06581e-13 0 0)
(5.68436e-14 0 0)
(6.39487e-14 0 0)
(2.55795e-13 0 0)
(2.84217e-13 0 0)
(1.35003e-13 0 0)
(4.97384e-14 0 0)
(4.97375e-14 0 0)
(-2.84211e-14 0 0)
(7.10537e-14 0 0)
(-1.13686e-13 0 0)
(4.26323e-14 0 0)
(-9.23703e-14 0 0)
(-1.49214e-13 0 0)
(-2.84217e-13 0 0)
(2.84214e-14 0 0)
(9.23706e-14 0 0)
(4.9738e-14 0 0)
(-1.63425e-13 0 0)
(-1.98952e-13 0 0)
(-1.63425e-13 0 0)
(-7.10541e-14 0 0)
(6.39488e-14 0 0)
(2.13162e-14 0 0)
(-1.56319e-13 0 0)
(-3.05533e-13 0 0)
(-3.76588e-13 0 0)
(-5.1159e-13 0 0)
(-3.19745e-13 0 0)
(-5.68434e-13 0 0)
(-5.54224e-13 0 0)
(-6.03961e-13 0 0)
(-3.41061e-13 0 0)
(-4.90274e-13 0 0)
(-4.19221e-13 0 0)
(-4.90274e-13 0 0)
(-1.27898e-13 0 0)
(-1.91846e-13 0 0)
(-4.97381e-14 0 0)
(1.49214e-13 0 0)
(2.55795e-13 0 0)
(-4.97379e-14 0 0)
(-2.91323e-13 0 0)
(-2.98428e-13 0 0)
(-3.12639e-13 0 0)
(-6.39488e-14 0 0)
(-2.20268e-13 0 0)
(-4.33431e-13 0 0)
(-1.77636e-13 0 0)
(2.13162e-14 0 0)
(-2.84217e-13 0 0)
(-3.55271e-13 0 0)
(-2.77112e-13 0 0)
(-2.41585e-13 0 0)
(-1.49214e-13 0 0)
(-5.68435e-14 0 0)
(1.98952e-13 0 0)
(2.27373e-13 0 0)
(2.8422e-14 0 0)
(2.84217e-13 0 0)
(-1.77635e-13 0 0)
(-7.10548e-14 0 0)
(-4.05009e-13 0 0)
(-4.0501e-13 0 0)
(-4.90274e-13 0 0)
(-3.62377e-13 0 0)
(6.39489e-14 0 0)
(2.77112e-13 0 0)
(8.52652e-14 0 0)
(-5.68433e-14 0 0)
(1.98952e-13 0 0)
(2.62901e-13 0 0)
(2.55795e-13 0 0)
(3.12639e-13 0 0)
(5.32907e-13 0 0)
(5.89751e-13 0 0)
(6.11067e-13 0 0)
(6.25278e-13 0 0)
(3.97904e-13 0 0)
(2.84217e-13 0 0)
(3.26849e-13 0 0)
(2.98428e-13 0 0)
(5.54223e-13 0 0)
(6.11067e-13 0 0)
(2.4869e-13 0 0)
(1.91847e-13 0 0)
(-2.84216e-14 0 0)
(-2.62901e-13 0 0)
(-2.62901e-13 0 0)
(-9.94763e-14 0 0)
(-1.35003e-13 0 0)
(-2.77112e-13 0 0)
(-4.54747e-13 0 0)
(-3.83693e-13 0 0)
(-6.60805e-13 0 0)
(-4.05009e-13 0 0)
(-4.68958e-13 0 0)
(-5.40012e-13 0 0)
(-3.19744e-13 0 0)
(-4.76063e-13 0 0)
(-2.06058e-13 0 0)
(-6.39487e-14 0 0)
(1.06581e-13 0 0)
(1.7053e-13 0 0)
(1.91847e-13 0 0)
(9.23706e-14 0 0)
(1.63425e-13 0 0)
(1.84741e-13 0 0)
(3.12639e-13 0 0)
(4.12115e-13 0 0)
(4.05009e-13 0 0)
(2.13163e-13 0 0)
(8.52651e-14 0 0)
(5.68434e-14 0 0)
(3.26849e-13 0 0)
(3.83693e-13 0 0)
(6.82121e-13 0 0)
(8.66862e-13 0 0)
(8.2423e-13 0 0)
(7.24753e-13 0 0)
(6.6791e-13 0 0)
(6.46594e-13 0 0)
(7.24754e-13 0 0)
(5.32907e-13 0 0)
(2.84217e-13 0 0)
(2.20268e-13 0 0)
(1.20792e-13 0 0)
(4.40536e-13 0 0)
(2.4869e-13 0 0)
(1.91847e-13 0 0)
(-3.55272e-14 0 0)
(-1.49214e-13 0 0)
(-2.84218e-14 0 0)
(7.10541e-15 0 0)
(-4.26326e-13 0 0)
(-5.25801e-13 0 0)
(-4.0501e-13 0 0)
(-3.4106e-13 0 0)
(-3.41061e-13 0 0)
(-5.47118e-13 0 0)
(-6.25278e-13 0 0)
(-5.47118e-13 0 0)
(-2.98428e-13 0 0)
(-2.27374e-13 0 0)
(-1.7053e-13 0 0)
(-3.69482e-13 0 0)
(-3.62377e-13 0 0)
(-6.03961e-13 0 0)
(-4.33431e-13 0 0)
(-4.1922e-13 0 0)
(-3.90799e-13 0 0)
(-2.70006e-13 0 0)
(-3.62377e-13 0 0)
(-3.19744e-13 0 0)
(-2.70006e-13 0 0)
(-1.5632e-13 0 0)
(-1.42108e-13 0 0)
(4.40537e-13 0 0)
(8.02913e-13 0 0)
(1.82609e-12 0 0)
(3.83693e-12 0 0)
(7.27596e-12 0 0)
(1.46159e-11 0 0)
(2.78177e-11 0 0)
(5.32907e-11 0 0)
(1.01203e-10 0 0)
(1.89971e-10 0 0)
(3.54937e-10 0 0)
(6.59128e-10 0 0)
(1.21528e-09 0 0)
(2.22629e-09 0 0)
(4.0507e-09 0 0)
(7.32026e-09 0 0)
(1.31398e-08 0 0)
(2.34259e-08 0 0)
(4.14785e-08 0 0)
(7.29362e-08 0 0)
(1.27359e-07 0 0)
(2.20823e-07 0 0)
(3.80153e-07 0 0)
(6.49731e-07 0 0)
(1.10239e-06 0 0)
(1.85663e-06 0 0)
(3.1036e-06 0 0)
(5.14898e-06 0 0)
(8.47715e-06 0 0)
(1.38488e-05 0 0)
(2.24477e-05 0 0)
(3.60979e-05 0 0)
(5.75841e-05 0 0)
(9.11156e-05 0 0)
(0.000142991 0 0)
(0.000222538 0 0)
(0.00034343 0 0)
(0.00052549 0 0)
(0.000797144 0 0)
(0.0011987 0 0)
(0.00178664 0 0)
(0.00263919 0 0)
(0.00386337 0 0)
(0.00560372 0 0)
(0.00805296 0 0)
(0.0114646 0 0)
(0.0161674 0 0)
(0.0225819 0 0)
(0.0312375 0 0)
(0.042791 0 0)
(0.0580436 0 0)
(0.0779564 0 0)
(0.103662 0 0)
(0.136472 0 0)
(0.177873 0 0)
(0.229516 0 0)
(0.2932 0 0)
(0.37083 0 0)
(0.464382 0 0)
(0.57584 0 0)
(0.707138 0 0)
(0.860092 0 0)
(1.03633 0 0)
(1.23722 0 0)
(1.46383 0 0)
(1.71685 0 0)
(1.99661 0 0)
(2.30303 0 0)
(2.63561 0 0)
(2.99349 0 0)
(3.37549 0 0)
(3.78013 0 0)
(4.20569 0 0)
(4.65031 0 0)
(5.11204 0 0)
(5.58889 0 0)
(6.07891 0 0)
(6.58023 0 0)
(7.09112 0 0)
(7.60998 0 0)
(8.1354 0 0)
(8.66615 0 0)
(9.20119 0 0)
(9.73964 0 0)
(10.2808 0 0)
(10.8241 0 0)
(11.369 0 0)
(11.9153 0 0)
(12.4627 0 0)
(13.0111 0 0)
(13.5602 0 0)
(14.11 0 0)
(14.6605 0 0)
(15.2116 0 0)
(15.7634 0 0)
(16.3158 0 0)
(16.8689 0 0)
(17.4227 0 0)
(17.9772 0 0)
(18.5325 0 0)
(19.0886 0 0)
(19.6456 0 0)
(20.2036 0 0)
(20.7625 0 0)
(21.3225 0 0)
(21.8835 0 0)
(22.4458 0 0)
(23.0092 0 0)
(23.5741 0 0)
(24.1401 0 0)
(24.7079 0 0)
(25.2762 0 0)
(25.8481 0 0)
(26.4178 0 0)
(26.995 0 0)
(27.565 0 0)
(28.1454 0 0)
(28.7237 0 0)
(29.3007 0 0)
(29.8799 0 0)
(30.4619 0 0)
(31.0457 0 0)
(31.6311 0 0)
(32.2183 0 0)
(32.8072 0 0)
(33.3981 0 0)
(33.9907 0 0)
(34.5852 0 0)
(35.1816 0 0)
(35.7797 0 0)
(36.3797 0 0)
(36.9815 0 0)
(37.5851 0 0)
(38.1904 0 0)
(38.7975 0 0)
(39.4063 0 0)
(40.0168 0 0)
(40.629 0 0)
(41.2429 0 0)
(41.8585 0 0)
(42.4758 0 0)
(43.0949 0 0)
(43.7156 0 0)
(44.338 0 0)
(44.9623 0 0)
(45.5882 0 0)
(46.216 0 0)
(46.8456 0 0)
(47.477 0 0)
(48.1103 0 0)
(48.7455 0 0)
(49.3826 0 0)
(50.0216 0 0)
(50.6626 0 0)
(51.3056 0 0)
(51.9506 0 0)
(52.5976 0 0)
(53.2467 0 0)
(53.8978 0 0)
(54.551 0 0)
(55.2062 0 0)
(55.8635 0 0)
(56.5228 0 0)
(57.1842 0 0)
(57.8476 0 0)
(58.513 0 0)
(59.1803 0 0)
(59.8499 0 0)
(60.5208 0 0)
(61.1951 0 0)
(61.8686 0 0)
(62.5491 0 0)
(63.2227 0 0)
(63.9135 0 0)
(64.5808 0 0)
(65.2912 0 0)
(65.9393 0 0)
(66.6859 0 0)
(67.2949 0 0)
(68.0994 0 0)
(68.6489 0 0)
(69.5253 0 0)
(70.013 0 0)
(70.9438 0 0)
(71.4092 0 0)
(72.3492 0 0)
(72.8215 0 0)
(73.7634 0 0)
(74.2362 0 0)
(75.1861 0 0)
(75.6611 0 0)
(76.6134 0 0)
(77.0909 0 0)
(78.0486 0 0)
(78.5276 0 0)
(79.4883 0 0)
(79.9693 0 0)
(80.9341 0 0)
(81.4166 0 0)
(82.3844 0 0)
(82.8685 0 0)
(83.8393 0 0)
(84.3245 0 0)
(85.2977 0 0)
(85.784 0 0)
(86.7571 0 0)
(87.2481 0 0)
(88.2152 0 0)
(88.711 0 0)
(89.6719 0 0)
(90.1699 0 0)
(91.1181 0 0)
(91.6119 0 0)
(92.5389 0 0)
(93.0227 0 0)
(94.6858 0 0)
)
;

boundaryField
{
    sideLeft
    {
        type            symmetryPlane;
    }
    sideRight
    {
        type            calculated;
        value           uniform (94.2947 0 0);
    }
    topbottom
    {
        type            empty;
    }
    frontback
    {
        type            empty;
    }
}


// ************************************************************************* //
