/*--------------------------------*- C++ -*----------------------------------*\
| =========                 |                                                 |
| \\      /  F ield         | OpenFOAM: The Open Source CFD Toolbox           |
|  \\    /   O peration     | Version:  2.4.0                                 |
|   \\  /    A nd           | Web:      www.OpenFOAM.org                      |
|    \\/     M anipulation  |                                                 |
\*---------------------------------------------------------------------------*/
FoamFile
{
    version     2.0;
    format      ascii;
    class       volVectorField;
    location    "0.05";
    object      U.airMean;
}
// * * * * * * * * * * * * * * * * * * * * * * * * * * * * * * * * * * * * * //

dimensions      [0 1 -1 0 0 0 0];

internalField   nonuniform List<vector> 
1000
(
(-8.04758e-14 0 0)
(-4.07142e-14 0 0)
(-7.61843e-14 0 0)
(-3.6522e-14 0 0)
(-1.00669e-13 0 0)
(-1.38132e-14 0 0)
(-7.33705e-14 0 0)
(-4.00462e-14 0 0)
(-4.52189e-14 0 0)
(-2.65601e-14 0 0)
(-3.81988e-14 0 0)
(-8.65582e-14 0 0)
(-3.20598e-14 0 0)
(-8.93861e-14 0 0)
(-2.31495e-14 0 0)
(-4.95106e-14 0 0)
(3.80851e-15 0 0)
(-1.57598e-14 0 0)
(9.3933e-15 0 0)
(-5.54506e-14 0 0)
(3.70901e-14 0 0)
(-5.60901e-14 0 0)
(-1.39267e-14 0 0)
(-6.28688e-14 0 0)
(-7.86855e-14 0 0)
(-6.11209e-14 0 0)
(-7.44649e-14 0 0)
(-6.17321e-14 0 0)
(-1.26036e-13 0 0)
(-3.83127e-14 0 0)
(-1.01238e-13 0 0)
(-8.66578e-14 0 0)
(-5.94725e-14 0 0)
(-5.91455e-14 0 0)
(-1.59874e-14 0 0)
(-1.00627e-13 0 0)
(2.61193e-14 0 0)
(-6.55119e-14 0 0)
(1.40118e-14 0 0)
(-5.47117e-14 0 0)
(2.59346e-14 0 0)
(-4.40251e-14 0 0)
(-1.67973e-14 0 0)
(-2.50963e-14 0 0)
(2.71853e-14 0 0)
(1.51345e-14 0 0)
(-2.78528e-15 0 0)
(1.69393e-14 0 0)
(-8.25651e-15 0 0)
(8.18539e-15 0 0)
(-6.88799e-14 0 0)
(9.80541e-15 0 0)
(-2.88906e-14 0 0)
(1.88435e-14 0 0)
(-5.54156e-16 0 0)
(9.12333e-15 0 0)
(5.62749e-14 0 0)
(2.07763e-14 0 0)
(4.55316e-14 0 0)
(6.17319e-14 0 0)
(3.82273e-14 0 0)
(1.01423e-13 0 0)
(9.02532e-14 0 0)
(1.04251e-13 0 0)
(1.27343e-13 0 0)
(1.23691e-13 0 0)
(1.41696e-13 0 0)
(1.26008e-13 0 0)
(8.47394e-14 0 0)
(1.2399e-13 0 0)
(3.43052e-14 0 0)
(7.99643e-14 0 0)
(1.26493e-15 0 0)
(5.78381e-14 0 0)
(1.77351e-14 0 0)
(-2.42293e-14 0 0)
(3.46743e-14 0 0)
(-4.32435e-14 0 0)
(-1.5362e-14 0 0)
(5.82666e-16 0 0)
(2.71e-14 0 0)
(1.53619e-14 0 0)
(-2.2026e-15 0 0)
(-1.43534e-15 0 0)
(-2.64748e-14 0 0)
(-1.60441e-14 0 0)
(-5.95718e-14 0 0)
(-3.00845e-14 0 0)
(-7.34417e-14 0 0)
(-9.44878e-14 0 0)
(-4.85444e-14 0 0)
(-6.96332e-14 0 0)
(-7.3129e-14 0 0)
(-3.2415e-14 0 0)
(-3.86535e-14 0 0)
(-6.33822e-15 0 0)
(-7.27594e-14 0 0)
(-1.2662e-14 0 0)
(-6.33235e-14 0 0)
(-4.1581e-14 0 0)
(-8.51087e-14 0 0)
(-7.14949e-14 0 0)
(-7.87708e-14 0 0)
(-7.80603e-14 0 0)
(-9.7117e-14 0 0)
(-1.10248e-13 0 0)
(-8.03199e-14 0 0)
(-1.12436e-13 0 0)
(-1.3442e-13 0 0)
(-1.08798e-13 0 0)
(-1.45746e-13 0 0)
(-1.06297e-13 0 0)
(-1.31266e-13 0 0)
(-1.17794e-13 0 0)
(-1.49257e-13 0 0)
(-1.20153e-13 0 0)
(-9.90781e-14 0 0)
(-7.3527e-14 0 0)
(-9.1319e-14 0 0)
(-8.85762e-14 0 0)
(-7.29017e-14 0 0)
(-5.23386e-14 0 0)
(-2.93454e-14 0 0)
(-2.58638e-14 0 0)
(-2.08899e-14 0 0)
(-2.9317e-14 0 0)
(-4.87438e-15 0 0)
(-4.05719e-14 0 0)
(4.56156e-15 0 0)
(-1.01906e-13 0 0)
(-7.2335e-15 0 0)
(-1.31891e-13 0 0)
(-8.62883e-14 0 0)
(-1.06198e-13 0 0)
(-7.30438e-14 0 0)
(-9.571e-14 0 0)
(-6.40626e-14 0 0)
(-5.86198e-14 0 0)
(-2.17569e-14 0 0)
(-3.24149e-14 0 0)
(-2.93881e-14 0 0)
(-2.14016e-14 0 0)
(-6.52988e-14 0 0)
(-4.53337e-15 0 0)
(-6.09076e-14 0 0)
(-2.9445e-14 0 0)
(-4.05862e-14 0 0)
(-4.89706e-14 0 0)
(-2.81801e-14 0 0)
(-4.52758e-14 0 0)
(-6.99316e-14 0 0)
(-5.78098e-14 0 0)
(-6.41193e-14 0 0)
(-6.74873e-14 0 0)
(-4.313e-14 0 0)
(-3.53566e-14 0 0)
(-2.84218e-14 0 0)
(-5.16849e-14 0 0)
(-5.65024e-14 0 0)
(-8.49525e-14 0 0)
(-1.03171e-13 0 0)
(-5.10455e-14 0 0)
(-5.42712e-14 0 0)
(-1.6059e-15 0 0)
(-1.6044e-14 0 0)
(2.86633e-14 0 0)
(-2.70035e-16 0 0)
(3.56692e-14 0 0)
(1.83315e-15 0 0)
(-1.95256e-14 0 0)
(1.77493e-14 0 0)
(-4.63271e-15 0 0)
(-3.89235e-14 0 0)
(-1.24772e-14 0 0)
(-7.42658e-14 0 0)
(-1.7238e-14 0 0)
(-7.18784e-14 0 0)
(-4.71091e-14 0 0)
(-1.06638e-13 0 0)
(-1.00343e-13 0 0)
(-9.14895e-14 0 0)
(-7.42944e-14 0 0)
(-7.68665e-14 0 0)
(-1.3415e-13 0 0)
(-6.14195e-14 0 0)
(-1.34889e-13 0 0)
(-7.07703e-14 0 0)
(-1.7431e-13 0 0)
(-4.54892e-14 0 0)
(-1.2453e-13 0 0)
(-7.79182e-14 0 0)
(-1.00115e-13 0 0)
(-5.97852e-14 0 0)
(-7.47065e-14 0 0)
(-8.85194e-14 0 0)
(-8.65441e-14 0 0)
(-8.63451e-14 0 0)
(-8.30909e-14 0 0)
(-7.81312e-14 0 0)
(-5.15855e-14 0 0)
(-3.89236e-14 0 0)
(-8.90877e-14 0 0)
(-4.3471e-14 0 0)
(-8.13429e-14 0 0)
(-5.09033e-14 0 0)
(-4.75637e-14 0 0)
(-1.50723e-19 0 0)
(-5.07895e-14 0 0)
(-4.66969e-14 0 0)
(-4.7919e-14 0 0)
(-2.26948e-14 0 0)
(-1.95257e-14 0 0)
(-4.29736e-14 0 0)
(1.80762e-14 0 0)
(-1.45803e-14 0 0)
(4.16235e-14 0 0)
(1.32588e-14 0 0)
(2.10888e-14 0 0)
(8.99559e-15 0 0)
(5.14006e-14 0 0)
(4.28031e-14 0 0)
(4.20357e-14 0 0)
(5.94724e-14 0 0)
(6.28403e-14 0 0)
(2.07494e-15 0 0)
(9.1333e-14 0 0)
(6.46167e-14 0 0)
(2.53807e-14 0 0)
(8.95993e-14 0 0)
(5.48824e-14 0 0)
(5.38876e-14 0 0)
(3.09086e-14 0 0)
(1.20794e-14 0 0)
(6.43182e-14 0 0)
(5.15002e-14 0 0)
(6.95052e-14 0 0)
(3.94778e-14 0 0)
(4.09841e-14 0 0)
(2.19131e-14 0 0)
(3.42491e-15 0 0)
(4.45083e-14 0 0)
(3.74598e-14 0 0)
(-1.33723e-14 0 0)
(7.86427e-14 0 0)
(5.68442e-15 0 0)
(3.97335e-14 0 0)
(-1.07291e-14 0 0)
(2.62332e-14 0 0)
(5.92594e-15 0 0)
(4.51904e-14 0 0)
(-3.68044e-15 0 0)
(2.92316e-14 0 0)
(6.42336e-15 0 0)
(-2.34763e-14 0 0)
(1.65271e-14 0 0)
(-1.49639e-14 0 0)
(2.70574e-14 0 0)
(-2.22825e-14 0 0)
(3.00984e-14 0 0)
(-6.93913e-14 0 0)
(3.53848e-14 0 0)
(-6.30392e-14 0 0)
(-3.73757e-15 0 0)
(-5.07754e-14 0 0)
(-6.84252e-14 0 0)
(-3.4433e-14 0 0)
(-9.35784e-14 0 0)
(-1.04309e-14 0 0)
(-7.24327e-14 0 0)
(-2.25526e-14 0 0)
(-4.73789e-14 0 0)
(-2.13167e-15 0 0)
(-2.2311e-14 0 0)
(-1.42819e-14 0 0)
(1.43814e-14 0 0)
(2.55084e-14 0 0)
(9.7488e-15 0 0)
(1.02247e-13 0 0)
(3.92647e-14 0 0)
(9.33511e-14 0 0)
(8.99974e-14 0 0)
(1.27244e-13 0 0)
(1.12948e-13 0 0)
(5.65879e-14 0 0)
(1.75731e-13 0 0)
(1.2038e-13 0 0)
(1.53889e-13 0 0)
(1.27273e-13 0 0)
(1.61009e-13 0 0)
(1.33539e-13 0 0)
(1.63567e-13 0 0)
(1.67006e-13 0 0)
(1.74921e-13 0 0)
(1.34961e-13 0 0)
(1.75234e-13 0 0)
(1.64491e-13 0 0)
(1.47281e-13 0 0)
(2.33669e-13 0 0)
(2.09027e-13 0 0)
(1.89232e-13 0 0)
(2.37648e-13 0 0)
(2.11273e-13 0 0)
(2.22755e-13 0 0)
(2.34976e-13 0 0)
(1.75575e-13 0 0)
(2.53337e-13 0 0)
(1.79469e-13 0 0)
(2.28169e-13 0 0)
(1.74964e-13 0 0)
(1.67333e-13 0 0)
(1.64263e-13 0 0)
(1.39679e-13 0 0)
(1.52895e-13 0 0)
(1.28821e-13 0 0)
(1.75419e-13 0 0)
(1.56959e-13 0 0)
(1.69564e-13 0 0)
(1.53833e-13 0 0)
(1.64462e-13 0 0)
(1.85125e-13 0 0)
(1.59375e-13 0 0)
(1.28722e-13 0 0)
(1.64178e-13 0 0)
(1.21119e-13 0 0)
(1.61648e-13 0 0)
(1.02872e-13 0 0)
(8.03198e-14 0 0)
(9.23278e-14 0 0)
(5.90177e-14 0 0)
(5.0818e-14 0 0)
(4.96385e-14 0 0)
(4.72653e-14 0 0)
(2.43017e-15 0 0)
(7.77616e-14 0 0)
(-1.01038e-14 0 0)
(1.77776e-14 0 0)
(-4.09841e-14 0 0)
(-6.5853e-14 0 0)
(-5.22249e-14 0 0)
(-4.98233e-14 0 0)
(-5.80797e-14 0 0)
(-6.56969e-14 0 0)
(-8.10587e-14 0 0)
(-1.39025e-13 0 0)
(-8.88322e-14 0 0)
(-1.95129e-13 0 0)
(-1.09552e-13 0 0)
(-2.18293e-13 0 0)
(-1.36737e-13 0 0)
(-2.03926e-13 0 0)
(-1.88905e-13 0 0)
(-1.87967e-13 0 0)
(-1.91022e-13 0 0)
(-1.84784e-13 0 0)
(-1.39394e-13 0 0)
(-1.36893e-13 0 0)
(-1.82425e-13 0 0)
(-1.18945e-13 0 0)
(-1.58351e-13 0 0)
(-1.28111e-13 0 0)
(-1.32701e-13 0 0)
(-1.21872e-13 0 0)
(-1.59218e-13 0 0)
(-1.50422e-13 0 0)
(-1.06411e-13 0 0)
(-1.05203e-13 0 0)
(-1.46656e-13 0 0)
(-1.01679e-13 0 0)
(-1.46542e-13 0 0)
(-1.18135e-13 0 0)
(-1.00386e-13 0 0)
(-8.71126e-14 0 0)
(-1.17168e-13 0 0)
(-8.37873e-14 0 0)
(-1.26704e-13 0 0)
(-2.96298e-14 0 0)
(-5.35322e-14 0 0)
(-2.7626e-14 0 0)
(-6.49435e-14 0 0)
(-1.70247e-14 0 0)
(-1.1039e-13 0 0)
(-4.12685e-14 0 0)
(-9.91917e-14 0 0)
(-1.08258e-13 0 0)
(-9.91635e-14 0 0)
(-1.87697e-13 0 0)
(-7.81599e-14 0 0)
(-1.6928e-13 0 0)
(-9.20865e-14 0 0)
(-1.73657e-13 0 0)
(-1.22711e-13 0 0)
(-1.31791e-13 0 0)
(-1.09921e-13 0 0)
(-1.61634e-13 0 0)
(-9.00686e-14 0 0)
(-1.39096e-13 0 0)
(-9.94334e-14 0 0)
(-1.14753e-13 0 0)
(-5.34187e-14 0 0)
(-6.79564e-14 0 0)
(-6.35225e-14 0 0)
(-7.7634e-14 0 0)
(-1.36111e-13 0 0)
(-7.23902e-14 0 0)
(-1.21048e-13 0 0)
(-1.18291e-13 0 0)
(-1.00698e-13 0 0)
(-1.23634e-13 0 0)
(-1.25482e-13 0 0)
(-1.00755e-13 0 0)
(-1.28168e-13 0 0)
(-1.01011e-13 0 0)
(-1.40844e-13 0 0)
(-1.1012e-13 0 0)
(-1.01551e-13 0 0)
(-1.46116e-13 0 0)
(-9.19017e-14 0 0)
(-1.01508e-13 0 0)
(-1.50237e-13 0 0)
(-4.27465e-14 0 0)
(-9.28536e-14 0 0)
(-8.02061e-14 0 0)
(-1.25595e-13 0 0)
(-2.96014e-14 0 0)
(-9.33652e-14 0 0)
(-6.11777e-14 0 0)
(-4.41532e-14 0 0)
(-3.93641e-14 0 0)
(-3.74457e-14 0 0)
(-6.71887e-14 0 0)
(-1.20084e-14 0 0)
(-6.4304e-14 0 0)
(-5.98845e-14 0 0)
(-1.45094e-14 0 0)
(-3.14202e-14 0 0)
(-7.24895e-14 0 0)
(-6.2002e-14 0 0)
(-1.06397e-13 0 0)
(-7.30154e-14 0 0)
(-1.38542e-13 0 0)
(-6.41053e-14 0 0)
(-1.14937e-13 0 0)
(-8.8093e-14 0 0)
(-7.00738e-14 0 0)
(-6.61941e-14 0 0)
(-5.59198e-14 0 0)
(-6.94484e-14 0 0)
(-3.21735e-14 0 0)
(-4.00462e-14 0 0)
(-3.74882e-14 0 0)
(-3.67351e-14 0 0)
(-2.656e-14 0 0)
(2.16857e-14 0 0)
(1.62145e-14 0 0)
(-2.07051e-14 0 0)
(4.45793e-14 0 0)
(-1.17807e-14 0 0)
(-1.64988e-14 0 0)
(-4.06436e-15 0 0)
(-5.54933e-14 0 0)
(2.16003e-14 0 0)
(-5.13437e-14 0 0)
(5.75531e-15 0 0)
(-4.99369e-14 0 0)
(-9.63505e-15 0 0)
(-7.4138e-14 0 0)
(-4.27462e-14 0 0)
(-5.28928e-14 0 0)
(-2.71439e-15 0 0)
(-4.58583e-14 0 0)
(-9.35089e-15 0 0)
(-7.49763e-14 0 0)
(-1.35999e-14 0 0)
(-3.23155e-14 0 0)
(-5.34042e-14 0 0)
(-2.01938e-14 0 0)
(-7.78185e-14 0 0)
(-4.56182e-15 0 0)
(-5.34185e-14 0 0)
(-1.24487e-14 0 0)
(-1.25198e-14 0 0)
(-6.66496e-15 0 0)
(-6.05666e-14 0 0)
(-3.60964e-15 0 0)
(-3.21307e-14 0 0)
(-6.02539e-14 0 0)
(-3.98189e-14 0 0)
(-7.23758e-14 0 0)
(-8.64446e-14 0 0)
(-5.82645e-14 0 0)
(-6.12488e-14 0 0)
(-7.81455e-14 0 0)
(-8.14709e-14 0 0)
(-9.94475e-14 0 0)
(-1.07391e-13 0 0)
(-1.03597e-13 0 0)
(-1.31692e-13 0 0)
(-1.39138e-13 0 0)
(-1.35103e-13 0 0)
(-1.09679e-13 0 0)
(-9.99165e-14 0 0)
(-9.84813e-14 0 0)
(-1.03341e-13 0 0)
(-8.24229e-14 0 0)
(-9.19585e-14 0 0)
(-7.41097e-14 0 0)
(-1.29574e-13 0 0)
(-7.49056e-14 0 0)
(-1.42492e-13 0 0)
(-7.86145e-14 0 0)
(-1.27031e-13 0 0)
(-9.47864e-14 0 0)
(-9.71454e-14 0 0)
(-9.43743e-14 0 0)
(-9.70032e-14 0 0)
(-5.00507e-14 0 0)
(-6.59951e-14 0 0)
(-1.54046e-14 0 0)
(-2.2979e-14 0 0)
(-4.05293e-14 0 0)
(-2.19842e-14 0 0)
(-2.88339e-14 0 0)
(-1.52624e-14 0 0)
(-8.72548e-15 0 0)
(2.56506e-14 0 0)
(1.66125e-14 0 0)
(1.91562e-14 0 0)
(-4.66103e-15 0 0)
(3.82271e-14 0 0)
(-2.21546e-14 0 0)
(3.23722e-14 0 0)
(-2.87626e-14 0 0)
(3.45465e-14 0 0)
(-1.21359e-14 0 0)
(5.34611e-14 0 0)
(1.15251e-14 0 0)
(5.38164e-14 0 0)
(2.35047e-14 0 0)
(1.53194e-14 0 0)
(2.52668e-14 0 0)
(1.27984e-16 0 0)
(1.71942e-15 0 0)
(-4.79757e-14 0 0)
(5.51372e-15 0 0)
(-3.29549e-14 0 0)
(-1.87299e-14 0 0)
(-7.53233e-16 0 0)
(-1.74367e-14 0 0)
(-3.63655e-14 0 0)
(-1.51346e-14 0 0)
(-1.3415e-14 0 0)
(-9.36493e-15 0 0)
(6.7928e-15 0 0)
(2.04921e-14 0 0)
(6.41619e-14 0 0)
(5.21965e-14 0 0)
(6.3153e-14 0 0)
(6.70327e-14 0 0)
(1.24061e-13 0 0)
(8.86899e-14 0 0)
(6.99175e-14 0 0)
(1.21588e-13 0 0)
(9.86092e-14 0 0)
(1.21403e-13 0 0)
(1.05516e-13 0 0)
(8.29773e-14 0 0)
(1.39309e-13 0 0)
(1.22114e-13 0 0)
(1.33312e-13 0 0)
(1.22853e-13 0 0)
(1.6702e-13 0 0)
(1.18803e-13 0 0)
(1.26946e-13 0 0)
(1.14625e-13 0 0)
(1.53349e-13 0 0)
(1.4623e-13 0 0)
(1.49257e-13 0 0)
(1.48191e-13 0 0)
(1.26448e-13 0 0)
(1.52738e-13 0 0)
(1.44666e-13 0 0)
(1.54216e-13 0 0)
(1.35529e-13 0 0)
(1.37817e-13 0 0)
(9.96039e-14 0 0)
(1.05416e-13 0 0)
(6.29684e-14 0 0)
(1.10717e-13 0 0)
(5.97709e-14 0 0)
(1.13161e-13 0 0)
(4.83454e-14 0 0)
(1.16998e-13 0 0)
(5.06902e-14 0 0)
(8.93863e-14 0 0)
(7.13811e-14 0 0)
(8.57625e-14 0 0)
(6.86386e-14 0 0)
(1.20991e-13 0 0)
(1.09495e-13 0 0)
(7.53176e-14 0 0)
(1.22966e-13 0 0)
(1.01807e-13 0 0)
(9.5227e-14 0 0)
(1.13829e-13 0 0)
(1.1768e-13 0 0)
(7.08839e-14 0 0)
(1.18987e-13 0 0)
(7.21343e-14 0 0)
(1.00769e-13 0 0)
(7.53744e-14 0 0)
(1.08869e-13 0 0)
(7.65397e-14 0 0)
(5.43424e-14 0 0)
(6.67484e-14 0 0)
(5.03349e-14 0 0)
(8.38155e-14 0 0)
(-2.59488e-14 0 0)
(1.27045e-13 0 0)
(3.12651e-15 0 0)
(2.54517e-14 0 0)
(1.00329e-14 0 0)
(7.53743e-14 0 0)
(3.97336e-14 0 0)
(5.85772e-14 0 0)
(4.664e-14 0 0)
(8.1016e-14 0 0)
(4.34995e-14 0 0)
(6.41478e-14 0 0)
(5.89325e-14 0 0)
(1.05089e-13 0 0)
(1.0759e-13 0 0)
(7.26886e-14 0 0)
(1.14014e-13 0 0)
(1.94122e-14 0 0)
(1.0067e-13 0 0)
(-8.62568e-15 0 0)
(1.37859e-13 0 0)
(3.16904e-14 0 0)
(9.42037e-14 0 0)
(3.95632e-14 0 0)
(1.02602e-13 0 0)
(4.46222e-14 0 0)
(1.08258e-13 0 0)
(7.30722e-14 0 0)
(7.03722e-14 0 0)
(6.13767e-14 0 0)
(1.08741e-13 0 0)
(8.66435e-14 0 0)
(5.4044e-14 0 0)
(7.60849e-14 0 0)
(8.55209e-14 0 0)
(6.04815e-14 0 0)
(7.38112e-14 0 0)
(7.46638e-14 0 0)
(2.53381e-14 0 0)
(1.09722e-13 0 0)
(-2.18844e-14 0 0)
(1.16912e-13 0 0)
(8.02927e-15 0 0)
(9.75006e-14 0 0)
(2.36044e-14 0 0)
(1.18931e-13 0 0)
(5.27223e-14 0 0)
(5.79662e-14 0 0)
(3.34096e-14 0 0)
(6.39631e-14 0 0)
(4.21352e-14 0 0)
(3.43761e-14 0 0)
(2.92034e-14 0 0)
(7.99502e-14 0 0)
(3.71615e-14 0 0)
(5.55644e-14 0 0)
(5.88615e-14 0 0)
(9.96748e-14 0 0)
(7.18927e-14 0 0)
(4.63132e-14 0 0)
(4.29878e-14 0 0)
(2.86206e-14 0 0)
(1.73799e-14 0 0)
(-9.29392e-15 0 0)
(-1.32872e-14 0 0)
(-4.39967e-14 0 0)
(-1.47367e-14 0 0)
(-2.55369e-14 0 0)
(-1.02177e-14 0 0)
(-9.24841e-14 0 0)
(-4.19932e-14 0 0)
(-1.18959e-13 0 0)
(-6.28139e-15 0 0)
(-1.02531e-13 0 0)
(1.32727e-14 0 0)
(-8.2707e-14 0 0)
(-2.46275e-14 0 0)
(-5.02211e-14 0 0)
(-3.18181e-14 0 0)
(-4.67253e-14 0 0)
(-5.5138e-14 0 0)
(-1.05872e-14 0 0)
(-1.20792e-14 0 0)
(-2.85922e-14 0 0)
(-8.62605e-15 0 0)
(5.67006e-15 0 0)
(-3.37081e-14 0 0)
(-2.96864e-14 0 0)
(-2.15863e-14 0 0)
(-1.79057e-14 0 0)
(-9.92058e-14 0 0)
(-2.6404e-14 0 0)
(-8.88745e-14 0 0)
(-9.56409e-15 0 0)
(-1.07576e-13 0 0)
(-5.67156e-14 0 0)
(-7.86713e-14 0 0)
(-8.65867e-14 0 0)
(-5.01785e-14 0 0)
(-4.54179e-14 0 0)
(1.57728e-15 0 0)
(-7.51894e-14 0 0)
(4.44087e-14 0 0)
(-4.06144e-14 0 0)
(5.3589e-14 0 0)
(4.44798e-15 0 0)
(1.86021e-14 0 0)
(4.64978e-14 0 0)
(4.0842e-14 0 0)
(5.94155e-14 0 0)
(3.56698e-15 0 0)
(6.01829e-14 0 0)
(1.00329e-14 0 0)
(7.64545e-15 0 0)
(2.08331e-14 0 0)
(6.96331e-16 0 0)
(-7.34702e-15 0 0)
(-2.92741e-15 0 0)
(9.37877e-16 0 0)
(-2.89758e-14 0 0)
(3.09937e-14 0 0)
(-1.71099e-14 0 0)
(-2.49115e-14 0 0)
(6.90645e-15 0 0)
(1.17381e-14 0 0)
(4.48352e-14 0 0)
(-5.21525e-15 0 0)
(6.40908e-14 0 0)
(1.50635e-14 0 0)
(-9.43587e-15 0 0)
(6.83967e-14 0 0)
(2.15864e-14 0 0)
(7.96233e-14 0 0)
(2.59633e-14 0 0)
(4.73789e-14 0 0)
(1.0374e-14 0 0)
(2.47695e-14 0 0)
(6.11076e-16 0 0)
(1.15392e-14 0 0)
(1.00897e-14 0 0)
(4.26855e-17 0 0)
(-1.12977e-14 0 0)
(-3.26849e-14 0 0)
(-1.78204e-14 0 0)
(-3.46177e-14 0 0)
(-3.88099e-14 0 0)
(-6.43751e-14 0 0)
(-2.79387e-14 0 0)
(-1.08414e-13 0 0)
(-2.42439e-14 0 0)
(-8.5734e-14 0 0)
(-9.23137e-14 0 0)
(-7.4806e-14 0 0)
(-9.98881e-14 0 0)
(-1.08045e-13 0 0)
(-1.11072e-13 0 0)
(-1.29063e-13 0 0)
(-1.33227e-13 0 0)
(-1.75873e-13 0 0)
(-9.82824e-14 0 0)
(-1.3587e-13 0 0)
(-1.20735e-13 0 0)
(-1.16842e-13 0 0)
(-1.20352e-13 0 0)
(-1.14596e-13 0 0)
(-1.65954e-13 0 0)
(-1.29603e-13 0 0)
(-1.60796e-13 0 0)
(-1.44226e-13 0 0)
(-1.44354e-13 0 0)
(-1.38343e-13 0 0)
(-9.42607e-14 0 0)
(-1.12138e-13 0 0)
(-5.10175e-15 0 0)
(9.4687e-14 0 0)
(3.39099e-13 0 0)
(8.2575e-13 0 0)
(1.74079e-12 0 0)
(3.41699e-12 0 0)
(6.58939e-12 0 0)
(1.23438e-11 0 0)
(2.30485e-11 0 0)
(4.243e-11 0 0)
(7.76509e-11 0 0)
(1.41241e-10 0 0)
(2.54883e-10 0 0)
(4.57005e-10 0 0)
(8.13617e-10 0 0)
(1.43886e-09 0 0)
(2.52708e-09 0 0)
(4.40802e-09 0 0)
(7.63564e-09 0 0)
(1.3134e-08 0 0)
(2.24321e-08 0 0)
(3.80396e-08 0 0)
(6.40408e-08 0 0)
(1.07029e-07 0 0)
(1.77558e-07 0 0)
(2.92371e-07 0 0)
(4.77806e-07 0 0)
(7.74918e-07 0 0)
(1.24713e-06 0 0)
(1.99154e-06 0 0)
(3.15533e-06 0 0)
(4.95961e-06 0 0)
(7.73323e-06 0 0)
(1.19605e-05 0 0)
(1.83473e-05 0 0)
(2.79126e-05 0 0)
(4.2111e-05 0 0)
(6.29972e-05 0 0)
(9.34426e-05 0 0)
(0.000137414 0 0)
(0.000200331 0 0)
(0.000289511 0 0)
(0.000414717 0 0)
(0.000588816 0 0)
(0.00082856 0 0)
(0.00115548 0 0)
(0.0015969 0 0)
(0.00218702 0 0)
(0.0029681 0 0)
(0.00399163 0 0)
(0.0053195 0 0)
(0.00702501 0 0)
(0.00919378 0 0)
(0.0119243 0 0)
(0.0153285 0 0)
(0.0195312 0 0)
(0.0246699 0 0)
(0.030894 0 0)
(0.0383629 0 0)
(0.0472447 0 0)
(0.0577136 0 0)
(0.0699478 0 0)
(0.0841266 0 0)
(0.100428 0 0)
(0.119027 0 0)
(0.14009 0 0)
(0.163778 0 0)
(0.190239 0 0)
(0.219612 0 0)
(0.252023 0 0)
(0.287584 0 0)
(0.326397 0 0)
(0.368547 0 0)
(0.414113 0 0)
(0.463158 0 0)
(0.515739 0 0)
(0.571901 0 0)
(0.631684 0 0)
(0.695121 0 0)
(0.762239 0 0)
(0.833061 0 0)
(0.907609 0 0)
(0.985898 0 0)
(1.06795 0 0)
(1.15376 0 0)
(1.24337 0 0)
(1.33677 0 0)
(1.43399 0 0)
(1.53502 0 0)
(1.6399 0 0)
(1.74862 0 0)
(1.8612 0 0)
(1.97765 0 0)
(2.098 0 0)
(2.22224 0 0)
(2.3504 0 0)
(2.48248 0 0)
(2.61851 0 0)
(2.7585 0 0)
(2.90247 0 0)
(3.05043 0 0)
(3.20241 0 0)
(3.3584 0 0)
(3.51845 0 0)
(3.68256 0 0)
(3.85077 0 0)
(4.02305 0 0)
(4.19954 0 0)
(4.37997 0 0)
(4.56498 0 0)
(4.75329 0 0)
(4.94703 0 0)
(5.14417 0 0)
(5.34544 0 0)
(5.55109 0 0)
(5.76107 0 0)
(5.97535 0 0)
(6.19396 0 0)
(6.41691 0 0)
(6.64424 0 0)
(6.87598 0 0)
(7.11213 0 0)
(7.35274 0 0)
(7.59783 0 0)
(7.84741 0 0)
(8.10152 0 0)
(8.36017 0 0)
(8.62341 0 0)
(8.89124 0 0)
(9.16369 0 0)
(9.4408 0 0)
(9.72258 0 0)
(10.0091 0 0)
(10.3003 0 0)
(10.5962 0 0)
(10.897 0 0)
(11.2025 0 0)
(11.5129 0 0)
(11.8281 0 0)
(12.1482 0 0)
(12.4732 0 0)
(12.8031 0 0)
(13.138 0 0)
(13.4779 0 0)
(13.8228 0 0)
(14.1728 0 0)
(14.5279 0 0)
(14.888 0 0)
(15.2533 0 0)
(15.6238 0 0)
(15.9994 0 0)
(16.3803 0 0)
(16.7665 0 0)
(17.1579 0 0)
(17.5547 0 0)
(17.9568 0 0)
(18.3644 0 0)
(18.7773 0 0)
(19.1957 0 0)
(19.6196 0 0)
(20.0491 0 0)
(20.484 0 0)
(20.9246 0 0)
(21.3708 0 0)
(21.8227 0 0)
(22.2802 0 0)
(22.7436 0 0)
(23.2125 0 0)
(23.6877 0 0)
(24.1679 0 0)
(24.6553 0 0)
(25.1464 0 0)
(25.647 0 0)
(26.1481 0 0)
(26.6634 0 0)
(27.1728 0 0)
(27.7051 0 0)
(28.2207 0 0)
(28.7725 0 0)
(29.2925 0 0)
(29.8649 0 0)
(30.3892 0 0)
(30.9826 0 0)
(31.511 0 0)
(32.1258 0 0)
(32.6581 0 0)
(33.295 0 0)
(33.8309 0 0)
(34.4903 0 0)
(35.0296 0 0)
(35.7122 0 0)
(36.2546 0 0)
(36.961 0 0)
(37.5059 0 0)
(38.2369 0 0)
(38.7839 0 0)
(39.5403 0 0)
(40.0887 0 0)
(40.8715 0 0)
(41.4205 0 0)
(42.2308 0 0)
(42.7792 0 0)
(43.6177 0 0)
(44.1647 0 0)
(45.0316 0 0)
(45.5739 0 0)
(46.469 0 0)
(46.9956 0 0)
(47.9141 0 0)
(48.3823 0 0)
(49.8585 0 0)
)
;

boundaryField
{
    sideLeft
    {
        type            symmetryPlane;
    }
    sideRight
    {
        type            calculated;
        value           uniform (49.5312 0 0);
    }
    topbottom
    {
        type            empty;
    }
    frontback
    {
        type            empty;
    }
}


// ************************************************************************* //
