/*--------------------------------*- C++ -*----------------------------------*\
| =========                 |                                                 |
| \\      /  F ield         | OpenFOAM: The Open Source CFD Toolbox           |
|  \\    /   O peration     | Version:  2.4.0                                 |
|   \\  /    A nd           | Web:      www.OpenFOAM.org                      |
|    \\/     M anipulation  |                                                 |
\*---------------------------------------------------------------------------*/
FoamFile
{
    version     2.0;
    format      ascii;
    class       volVectorField;
    location    "0.05";
    object      U.waterMean;
}
// * * * * * * * * * * * * * * * * * * * * * * * * * * * * * * * * * * * * * //

dimensions      [0 1 -1 0 0 0 0];

internalField   nonuniform List<vector> 
1000
(
(-8.17832e-14 0 0)
(-4.24052e-14 0 0)
(-7.56159e-14 0 0)
(-3.6053e-14 0 0)
(-9.94189e-14 0 0)
(-1.25058e-14 0 0)
(-7.54595e-14 0 0)
(-4.11689e-14 0 0)
(-4.60005e-14 0 0)
(-2.66454e-14 0 0)
(-3.79288e-14 0 0)
(-8.6615e-14 0 0)
(-3.11503e-14 0 0)
(-8.96988e-14 0 0)
(-2.31211e-14 0 0)
(-4.97806e-14 0 0)
(4.57589e-15 0 0)
(-1.39977e-14 0 0)
(8.55486e-15 0 0)
(-5.75112e-14 0 0)
(3.76159e-14 0 0)
(-5.42853e-14 0 0)
(-1.38273e-14 0 0)
(-6.19024e-14 0 0)
(-8.02345e-14 0 0)
(-6.05098e-14 0 0)
(-7.38538e-14 0 0)
(-6.30963e-14 0 0)
(-1.25837e-13 0 0)
(-4.00606e-14 0 0)
(-1.02119e-13 0 0)
(-8.71409e-14 0 0)
(-5.89751e-14 0 0)
(-5.76676e-14 0 0)
(-1.49926e-14 0 0)
(-1.00357e-13 0 0)
(2.44851e-14 0 0)
(-6.71746e-14 0 0)
(1.29886e-14 0 0)
(-5.41006e-14 0 0)
(2.62899e-14 0 0)
(-4.44514e-14 0 0)
(-1.50351e-14 0 0)
(-2.44711e-14 0 0)
(2.76259e-14 0 0)
(1.43245e-14 0 0)
(-3.11213e-15 0 0)
(1.8602e-14 0 0)
(-6.22435e-15 0 0)
(6.26692e-15 0 0)
(-7.26884e-14 0 0)
(1.04875e-14 0 0)
(-2.67732e-14 0 0)
(2.15578e-14 0 0)
(-5.25735e-16 0 0)
(5.04482e-15 0 0)
(5.36033e-14 0 0)
(2.32489e-14 0 0)
(4.64127e-14 0 0)
(5.97139e-14 0 0)
(3.58541e-14 0 0)
(1.00542e-13 0 0)
(9.16316e-14 0 0)
(1.0489e-13 0 0)
(1.29191e-13 0 0)
(1.24274e-13 0 0)
(1.41597e-13 0 0)
(1.24814e-13 0 0)
(8.29488e-14 0 0)
(1.24544e-13 0 0)
(3.4021e-14 0 0)
(7.93106e-14 0 0)
(2.71444e-15 0 0)
(5.83781e-14 0 0)
(1.80904e-14 0 0)
(-2.41441e-14 0 0)
(3.36795e-14 0 0)
(-4.35419e-14 0 0)
(-1.42251e-14 0 0)
(-6.11046e-16 0 0)
(2.602e-14 0 0)
(1.5973e-14 0 0)
(-8.80994e-16 0 0)
(6.39441e-16 0 0)
(-2.71285e-14 0 0)
(-1.91279e-14 0 0)
(-5.99555e-14 0 0)
(-2.74128e-14 0 0)
(-7.39391e-14 0 0)
(-9.64631e-14 0 0)
(-4.78196e-14 0 0)
(-6.99174e-14 0 0)
(-7.32285e-14 0 0)
(-2.94307e-14 0 0)
(-3.79998e-14 0 0)
(-8.55511e-15 0 0)
(-7.5161e-14 0 0)
(-1.18804e-14 0 0)
(-6.14761e-14 0 0)
(-3.9961e-14 0 0)
(-8.57482e-14 0 0)
(-7.35128e-14 0 0)
(-7.9865e-14 0 0)
(-7.7236e-14 0 0)
(-9.59233e-14 0 0)
(-1.1147e-13 0 0)
(-8.23236e-14 0 0)
(-1.13914e-13 0 0)
(-1.31195e-13 0 0)
(-1.06354e-13 0 0)
(-1.46642e-13 0 0)
(-1.0894e-13 0 0)
(-1.31735e-13 0 0)
(-1.16202e-13 0 0)
(-1.50621e-13 0 0)
(-1.21886e-13 0 0)
(-9.75576e-14 0 0)
(-6.95337e-14 0 0)
(-9.31664e-14 0 0)
(-9.00115e-14 0 0)
(-7.2788e-14 0 0)
(-5.49392e-14 0 0)
(-2.656e-14 0 0)
(-2.27942e-14 0 0)
(-2.26379e-14 0 0)
(-3.13776e-14 0 0)
(-6.09651e-15 0 0)
(-4.0174e-14 0 0)
(8.28481e-15 0 0)
(-1.00542e-13 0 0)
(-1.2051e-14 0 0)
(-1.32871e-13 0 0)
(-8.36025e-14 0 0)
(-1.07022e-13 0 0)
(-7.39533e-14 0 0)
(-9.2811e-14 0 0)
(-6.57963e-14 0 0)
(-6.06377e-14 0 0)
(-1.92842e-14 0 0)
(-3.34807e-14 0 0)
(-3.05392e-14 0 0)
(-1.98526e-14 0 0)
(-6.38919e-14 0 0)
(-6.16761e-15 0 0)
(-6.27124e-14 0 0)
(-2.90755e-14 0 0)
(-3.90514e-14 0 0)
(-5.01075e-14 0 0)
(-2.87486e-14 0 0)
(-4.63132e-14 0 0)
(-7.05284e-14 0 0)
(-5.74403e-14 0 0)
(-6.60947e-14 0 0)
(-6.74021e-14 0 0)
(-4.29879e-14 0 0)
(-3.71614e-14 0 0)
(-2.69296e-14 0 0)
(-4.99085e-14 0 0)
(-5.78098e-14 0 0)
(-8.68567e-14 0 0)
(-1.02815e-13 0 0)
(-5.03918e-14 0 0)
(-5.50244e-14 0 0)
(-1.81906e-15 0 0)
(-1.64277e-14 0 0)
(3.25429e-14 0 0)
(5.11562e-16 0 0)
(3.2486e-14 0 0)
(1.5063e-15 0 0)
(-1.86729e-14 0 0)
(1.82609e-14 0 0)
(-6.73591e-15 0 0)
(-4.11404e-14 0 0)
(-1.00898e-14 0 0)
(-7.3541e-14 0 0)
(-1.96112e-14 0 0)
(-7.05852e-14 0 0)
(-4.60717e-14 0 0)
(-1.05643e-13 0 0)
(-9.9476e-14 0 0)
(-9.33795e-14 0 0)
(-7.69234e-14 0 0)
(-7.62839e-14 0 0)
(-1.32928e-13 0 0)
(-6.27553e-14 0 0)
(-1.33909e-13 0 0)
(-7.13387e-14 0 0)
(-1.73585e-13 0 0)
(-4.34286e-14 0 0)
(-1.25752e-13 0 0)
(-7.85719e-14 0 0)
(-9.76853e-14 0 0)
(-5.92878e-14 0 0)
(-7.58717e-14 0 0)
(-8.58335e-14 0 0)
(-8.26077e-14 0 0)
(-8.76383e-14 0 0)
(-8.56773e-14 0 0)
(-7.86144e-14 0 0)
(-5.42571e-14 0 0)
(-3.82699e-14 0 0)
(-8.62456e-14 0 0)
(-4.51479e-14 0 0)
(-8.39293e-14 0 0)
(-5.1486e-14 0 0)
(-4.62705e-14 0 0)
(3.75151e-15 0 0)
(-4.87147e-14 0 0)
(-4.85016e-14 0 0)
(-4.86579e-14 0 0)
(-2.28795e-14 0 0)
(-2.09183e-14 0 0)
(-4.502e-14 0 0)
(1.75219e-14 0 0)
(-1.35571e-14 0 0)
(4.34709e-14 0 0)
(1.25625e-14 0 0)
(1.94972e-14 0 0)
(9.73456e-15 0 0)
(5.21395e-14 0 0)
(4.42242e-14 0 0)
(4.32579e-14 0 0)
(5.88045e-14 0 0)
(6.14334e-14 0 0)
(3.51024e-15 0 0)
(9.02956e-14 0 0)
(6.36504e-14 0 0)
(2.6546e-14 0 0)
(8.95851e-14 0 0)
(5.51381e-14 0 0)
(5.30349e-14 0 0)
(2.94022e-14 0 0)
(1.13546e-14 0 0)
(6.47303e-14 0 0)
(5.48255e-14 0 0)
(7.25037e-14 0 0)
(3.82557e-14 0 0)
(4.0103e-14 0 0)
(2.15152e-14 0 0)
(2.84227e-15 0 0)
(4.55457e-14 0 0)
(3.70192e-14 0 0)
(-1.5845e-14 0 0)
(7.7918e-14 0 0)
(9.12344e-15 0 0)
(4.16946e-14 0 0)
(-1.30313e-14 0 0)
(2.53948e-14 0 0)
(5.32909e-15 0 0)
(4.57873e-14 0 0)
(-1.29301e-15 0 0)
(2.86916e-14 0 0)
(4.97385e-15 0 0)
(-2.42579e-14 0 0)
(1.53476e-14 0 0)
(-1.41397e-14 0 0)
(2.74553e-14 0 0)
(-2.32489e-14 0 0)
(3.169e-14 0 0)
(-6.95619e-14 0 0)
(3.46316e-14 0 0)
(-6.06802e-14 0 0)
(-2.97018e-15 0 0)
(-5.22391e-14 0 0)
(-7.02442e-14 0 0)
(-3.53425e-14 0 0)
(-9.51274e-14 0 0)
(-1.30173e-14 0 0)
(-7.18074e-14 0 0)
(-2.12452e-14 0 0)
(-4.66257e-14 0 0)
(1.27894e-15 0 0)
(-2.27231e-14 0 0)
(-1.60724e-14 0 0)
(1.50919e-14 0 0)
(2.44995e-14 0 0)
(7.88718e-15 0 0)
(9.95042e-14 0 0)
(3.80568e-14 0 0)
(9.54401e-14 0 0)
(9.4758e-14 0 0)
(1.29248e-13 0 0)
(1.10475e-13 0 0)
(5.60194e-14 0 0)
(1.77707e-13 0 0)
(1.20622e-13 0 0)
(1.52468e-13 0 0)
(1.27571e-13 0 0)
(1.63737e-13 0 0)
(1.328e-13 0 0)
(1.61634e-13 0 0)
(1.66622e-13 0 0)
(1.7296e-13 0 0)
(1.32914e-13 0 0)
(1.75959e-13 0 0)
(1.68825e-13 0 0)
(1.51104e-13 0 0)
(2.32489e-13 0 0)
(2.0502e-13 0 0)
(1.87725e-13 0 0)
(2.40206e-13 0 0)
(2.12722e-13 0 0)
(2.24006e-13 0 0)
(2.35687e-13 0 0)
(1.74978e-13 0 0)
(2.54161e-13 0 0)
(1.76883e-13 0 0)
(2.26691e-13 0 0)
(1.75817e-13 0 0)
(1.67347e-13 0 0)
(1.64292e-13 0 0)
(1.40361e-13 0 0)
(1.52724e-13 0 0)
(1.28623e-13 0 0)
(1.76925e-13 0 0)
(1.58963e-13 0 0)
(1.70644e-13 0 0)
(1.52753e-13 0 0)
(1.63155e-13 0 0)
(1.84059e-13 0 0)
(1.61165e-13 0 0)
(1.30712e-13 0 0)
(1.63538e-13 0 0)
(1.21503e-13 0 0)
(1.62132e-13 0 0)
(1.02787e-13 0 0)
(8.07177e-14 0 0)
(9.08925e-14 0 0)
(5.71135e-14 0 0)
(5.16281e-14 0 0)
(4.99796e-14 0 0)
(4.54605e-14 0 0)
(2.82807e-15 0 0)
(8.0618e-14 0 0)
(-9.5069e-15 0 0)
(1.7465e-14 0 0)
(-4.06288e-14 0 0)
(-6.61088e-14 0 0)
(-5.35181e-14 0 0)
(-5.11023e-14 0 0)
(-5.73976e-14 0 0)
(-6.61374e-14 0 0)
(-8.05898e-14 0 0)
(-1.3695e-13 0 0)
(-8.96422e-14 0 0)
(-1.96991e-13 0 0)
(-1.08216e-13 0 0)
(-2.16076e-13 0 0)
(-1.38087e-13 0 0)
(-2.05233e-13 0 0)
(-1.89459e-13 0 0)
(-1.88265e-13 0 0)
(-1.9287e-13 0 0)
(-1.83704e-13 0 0)
(-1.36907e-13 0 0)
(-1.36993e-13 0 0)
(-1.84386e-13 0 0)
(-1.20011e-13 0 0)
(-1.57286e-13 0 0)
(-1.27486e-13 0 0)
(-1.32729e-13 0 0)
(-1.22057e-13 0 0)
(-1.572e-13 0 0)
(-1.49384e-13 0 0)
(-1.07164e-13 0 0)
(-1.06908e-13 0 0)
(-1.46713e-13 0 0)
(-1.01167e-13 0 0)
(-1.46187e-13 0 0)
(-1.15435e-13 0 0)
(-1.00414e-13 0 0)
(-8.80505e-14 0 0)
(-1.16714e-13 0 0)
(-8.39862e-14 0 0)
(-1.26206e-13 0 0)
(-2.92461e-14 0 0)
(-5.50386e-14 0 0)
(-3.06103e-14 0 0)
(-6.53698e-14 0 0)
(-1.51631e-14 0 0)
(-1.12251e-13 0 0)
(-4.21495e-14 0 0)
(-9.63779e-14 0 0)
(-1.08287e-13 0 0)
(-1.01025e-13 0 0)
(-1.8592e-13 0 0)
(-7.60993e-14 0 0)
(-1.71639e-13 0 0)
(-9.2726e-14 0 0)
(-1.7306e-13 0 0)
(-1.22142e-13 0 0)
(-1.30825e-13 0 0)
(-1.11342e-13 0 0)
(-1.62387e-13 0 0)
(-8.76669e-14 0 0)
(-1.38044e-13 0 0)
(-9.98739e-14 0 0)
(-1.16643e-13 0 0)
(-5.39871e-14 0 0)
(-6.83116e-14 0 0)
(-6.51141e-14 0 0)
(-7.61134e-14 0 0)
(-1.35415e-13 0 0)
(-7.43371e-14 0 0)
(-1.22242e-13 0 0)
(-1.1832e-13 0 0)
(-1.00243e-13 0 0)
(-1.24288e-13 0 0)
(-1.25368e-13 0 0)
(-9.89502e-14 0 0)
(-1.25425e-13 0 0)
(-1.00783e-13 0 0)
(-1.43459e-13 0 0)
(-1.09608e-13 0 0)
(-1.01139e-13 0 0)
(-1.47011e-13 0 0)
(-9.31096e-14 0 0)
(-1.02972e-13 0 0)
(-1.52283e-13 0 0)
(-4.17659e-14 0 0)
(-8.93294e-14 0 0)
(-8.02346e-14 0 0)
(-1.26491e-13 0 0)
(-2.84219e-14 0 0)
(-9.29247e-14 0 0)
(-6.05524e-14 0 0)
(-4.29452e-14 0 0)
(-4.02594e-14 0 0)
(-3.79289e-14 0 0)
(-6.6535e-14 0 0)
(-1.31026e-14 0 0)
(-6.46735e-14 0 0)
(-5.69997e-14 0 0)
(-1.22783e-14 0 0)
(-3.37366e-14 0 0)
(-7.58291e-14 0 0)
(-6.15614e-14 0 0)
(-1.05743e-13 0 0)
(-7.33281e-14 0 0)
(-1.3938e-13 0 0)
(-6.43611e-14 0 0)
(-1.1326e-13 0 0)
(-8.67146e-14 0 0)
(-6.9278e-14 0 0)
(-6.70325e-14 0 0)
(-5.68719e-14 0 0)
(-6.94057e-14 0 0)
(-3.29266e-14 0 0)
(-4.08562e-14 0 0)
(-3.72892e-14 0 0)
(-3.37224e-14 0 0)
(-2.74979e-14 0 0)
(1.88577e-14 0 0)
(1.73372e-14 0 0)
(-1.88151e-14 0 0)
(4.61425e-14 0 0)
(-1.16955e-14 0 0)
(-1.81188e-14 0 0)
(-4.107e-15 0 0)
(-5.52801e-14 0 0)
(1.98666e-14 0 0)
(-5.15426e-14 0 0)
(5.8832e-15 0 0)
(-4.86721e-14 0 0)
(-8.04344e-15 0 0)
(-7.51469e-14 0 0)
(-4.47215e-14 0 0)
(-5.32907e-14 0 0)
(-2.61491e-15 0 0)
(-4.47072e-14 0 0)
(-8.92457e-15 0 0)
(-7.58432e-14 0 0)
(-1.44099e-14 0 0)
(-3.17044e-14 0 0)
(-5.4129e-14 0 0)
(-2.05206e-14 0 0)
(-7.64116e-14 0 0)
(-5.40026e-15 0 0)
(-5.48681e-14 0 0)
(-1.21503e-14 0 0)
(-1.02602e-14 0 0)
(-6.67917e-15 0 0)
(-6.29682e-14 0 0)
(-2.65752e-15 0 0)
(-2.89191e-14 0 0)
(-6.14903e-14 0 0)
(-4.18795e-14 0 0)
(-7.13384e-14 0 0)
(-8.51656e-14 0 0)
(-5.88614e-14 0 0)
(-6.29399e-14 0 0)
(-7.87708e-14 0 0)
(-8.2224e-14 0 0)
(-9.83107e-14 0 0)
(-1.04748e-13 0 0)
(-1.05416e-13 0 0)
(-1.31777e-13 0 0)
(-1.37447e-13 0 0)
(-1.37405e-13 0 0)
(-1.1056e-13 0 0)
(-1.01167e-13 0 0)
(-1.00044e-13 0 0)
(-1.01537e-13 0 0)
(-8.11724e-14 0 0)
(-9.11627e-14 0 0)
(-7.35412e-14 0 0)
(-1.29987e-13 0 0)
(-7.50619e-14 0 0)
(-1.43515e-13 0 0)
(-8.00783e-14 0 0)
(-1.26207e-13 0 0)
(-9.38911e-14 0 0)
(-9.59233e-14 0 0)
(-9.49143e-14 0 0)
(-9.96464e-14 0 0)
(-5.03918e-14 0 0)
(-6.65494e-14 0 0)
(-1.59873e-14 0 0)
(-2.20553e-14 0 0)
(-3.95488e-14 0 0)
(-2.04778e-14 0 0)
(-2.94307e-14 0 0)
(-1.63851e-14 0 0)
(-8.71127e-15 0 0)
(2.51248e-14 0 0)
(1.58451e-14 0 0)
(1.79767e-14 0 0)
(-3.55259e-15 0 0)
(4.14814e-14 0 0)
(-2.30215e-14 0 0)
(3.14485e-14 0 0)
(-2.97148e-14 0 0)
(3.51575e-14 0 0)
(-8.78216e-15 0 0)
(5.30063e-14 0 0)
(9.50717e-15 0 0)
(5.37027e-14 0 0)
(2.47127e-14 0 0)
(1.34293e-14 0 0)
(2.48831e-14 0 0)
(1.8475e-15 0 0)
(2.28785e-15 0 0)
(-4.73078e-14 0 0)
(7.26165e-15 0 0)
(-3.13064e-14 0 0)
(-1.96678e-14 0 0)
(-1.05166e-15 0 0)
(-1.68541e-14 0 0)
(-3.44755e-14 0 0)
(-1.71952e-14 0 0)
(-1.69962e-14 0 0)
(-7.84437e-15 0 0)
(7.92967e-15 0 0)
(2.17e-14 0 0)
(6.43751e-14 0 0)
(5.01075e-14 0 0)
(6.43467e-14 0 0)
(6.94912e-14 0 0)
(1.21858e-13 0 0)
(8.71552e-14 0 0)
(6.99885e-14 0 0)
(1.24558e-13 0 0)
(1.02944e-13 0 0)
(1.19201e-13 0 0)
(1.02474e-13 0 0)
(8.41284e-14 0 0)
(1.37959e-13 0 0)
(1.20025e-13 0 0)
(1.35074e-13 0 0)
(1.23578e-13 0 0)
(1.66381e-13 0 0)
(1.18348e-13 0 0)
(1.25411e-13 0 0)
(1.14767e-13 0 0)
(1.55325e-13 0 0)
(1.47239e-13 0 0)
(1.4866e-13 0 0)
(1.48546e-13 0 0)
(1.28495e-13 0 0)
(1.51118e-13 0 0)
(1.41497e-13 0 0)
(1.55467e-13 0 0)
(1.37348e-13 0 0)
(1.38641e-13 0 0)
(1.03142e-13 0 0)
(1.07036e-13 0 0)
(5.98705e-14 0 0)
(1.11797e-13 0 0)
(6.09504e-14 0 0)
(1.11314e-13 0 0)
(4.92691e-14 0 0)
(1.17026e-13 0 0)
(5.07044e-14 0 0)
(8.98979e-14 0 0)
(6.9619e-14 0 0)
(8.46967e-14 0 0)
(6.85391e-14 0 0)
(1.20948e-13 0 0)
(1.10717e-13 0 0)
(7.5815e-14 0 0)
(1.20664e-13 0 0)
(1.03569e-13 0 0)
(9.63354e-14 0 0)
(1.12038e-13 0 0)
(1.19698e-13 0 0)
(7.37118e-14 0 0)
(1.18973e-13 0 0)
(7.03864e-14 0 0)
(1.00073e-13 0 0)
(7.42518e-14 0 0)
(1.1056e-13 0 0)
(7.73213e-14 0 0)
(5.46124e-14 0 0)
(6.67057e-14 0 0)
(4.84164e-14 0 0)
(8.47961e-14 0 0)
(-2.57925e-14 0 0)
(1.25197e-13 0 0)
(3.56705e-15 0 0)
(2.59775e-14 0 0)
(9.7345e-15 0 0)
(7.37258e-14 0 0)
(4.00036e-14 0 0)
(6.25278e-14 0 0)
(4.73648e-14 0 0)
(8.1826e-14 0 0)
(4.37695e-14 0 0)
(6.20304e-14 0 0)
(5.87478e-14 0 0)
(1.05785e-13 0 0)
(1.07448e-13 0 0)
(7.19496e-14 0 0)
(1.14568e-13 0 0)
(1.90996e-14 0 0)
(1.00087e-13 0 0)
(-7.70198e-15 0 0)
(1.37248e-13 0 0)
(3.2202e-14 0 0)
(9.49284e-14 0 0)
(3.91795e-14 0 0)
(1.02517e-13 0 0)
(4.39401e-14 0 0)
(1.07207e-13 0 0)
(7.51044e-14 0 0)
(7.43228e-14 0 0)
(6.00551e-14 0 0)
(1.04009e-13 0 0)
(8.50803e-14 0 0)
(5.6872e-14 0 0)
(7.57439e-14 0 0)
(8.29913e-14 0 0)
(6.22578e-14 0 0)
(7.41948e-14 0 0)
(7.47775e-14 0 0)
(2.76687e-14 0 0)
(1.08883e-13 0 0)
(-2.21971e-14 0 0)
(1.16429e-13 0 0)
(6.80714e-15 0 0)
(9.91206e-14 0 0)
(2.43291e-14 0 0)
(1.18689e-13 0 0)
(5.43281e-14 0 0)
(5.91883e-14 0 0)
(3.11359e-14 0 0)
(6.4631e-14 0 0)
(4.53042e-14 0 0)
(3.40919e-14 0 0)
(2.83223e-14 0 0)
(7.9467e-14 0 0)
(3.70051e-14 0 0)
(5.60476e-14 0 0)
(5.84067e-14 0 0)
(1.00087e-13 0 0)
(7.43086e-14 0 0)
(4.66684e-14 0 0)
(4.09699e-14 0 0)
(2.82085e-14 0 0)
(1.5504e-14 0 0)
(-1.05303e-14 0 0)
(-1.32019e-14 0 0)
(-4.3073e-14 0 0)
(-1.26619e-14 0 0)
(-2.42864e-14 0 0)
(-9.4787e-15 0 0)
(-9.53405e-14 0 0)
(-4.6356e-14 0 0)
(-1.20067e-13 0 0)
(-4.14976e-15 0 0)
(-9.83673e-14 0 0)
(1.25621e-14 0 0)
(-8.50518e-14 0 0)
(-2.64607e-14 0 0)
(-5.05196e-14 0 0)
(-3.05676e-14 0 0)
(-4.7379e-14 0 0)
(-5.29211e-14 0 0)
(-8.72553e-15 0 0)
(-1.27329e-14 0 0)
(-3.24149e-14 0 0)
(-9.13764e-15 0 0)
(6.06797e-15 0 0)
(-3.53281e-14 0 0)
(-2.98712e-14 0 0)
(-2.06342e-14 0 0)
(-1.69678e-14 0 0)
(-1.00158e-13 0 0)
(-2.5665e-14 0 0)
(-8.80503e-14 0 0)
(-9.23724e-15 0 0)
(-1.06624e-13 0 0)
(-5.81509e-14 0 0)
(-8.01918e-14 0 0)
(-8.79083e-14 0 0)
(-5.01643e-14 0 0)
(-4.47358e-14 0 0)
(1.05148e-15 0 0)
(-7.4621e-14 0 0)
(4.64409e-14 0 0)
(-3.95486e-14 0 0)
(5.0761e-14 0 0)
(4.98799e-15 0 0)
(1.81616e-14 0 0)
(4.44231e-14 0 0)
(4.32579e-14 0 0)
(6.00977e-14 0 0)
(2.89907e-15 0 0)
(6.13908e-14 0 0)
(1.19087e-14 0 0)
(3.5243e-15 0 0)
(2.20268e-14 0 0)
(3.02691e-15 0 0)
(-1.24487e-14 0 0)
(-2.7853e-15 0 0)
(2.55791e-15 0 0)
(-2.65741e-14 0 0)
(3.1889e-14 0 0)
(-1.95683e-14 0 0)
(-2.56363e-14 0 0)
(6.66487e-15 0 0)
(1.0246e-14 0 0)
(4.71516e-14 0 0)
(-4.13522e-15 0 0)
(6.13339e-14 0 0)
(1.55893e-14 0 0)
(-9.64904e-15 0 0)
(6.55119e-14 0 0)
(2.09185e-14 0 0)
(8.2295e-14 0 0)
(2.72707e-14 0 0)
(4.99511e-14 0 0)
(1.1383e-14 0 0)
(2.31921e-14 0 0)
(1.42109e-15 0 0)
(1.05729e-14 0 0)
(1.05728e-14 0 0)
(1.59167e-15 0 0)
(-1.15961e-14 0 0)
(-3.30828e-14 0 0)
(-2.01936e-14 0 0)
(-3.66214e-14 0 0)
(-3.80851e-14 0 0)
(-6.52136e-14 0 0)
(-3.01556e-14 0 0)
(-1.084e-13 0 0)
(-2.34197e-14 0 0)
(-8.42561e-14 0 0)
(-9.02957e-14 0 0)
(-7.58576e-14 0 0)
(-1.00499e-13 0 0)
(-1.07164e-13 0 0)
(-1.0948e-13 0 0)
(-1.29873e-13 0 0)
(-1.34818e-13 0 0)
(-1.76726e-13 0 0)
(-9.99735e-14 0 0)
(-1.34548e-13 0 0)
(-1.1859e-13 0 0)
(-1.17481e-13 0 0)
(-1.22157e-13 0 0)
(-1.15605e-13 0 0)
(-1.65073e-13 0 0)
(-1.2794e-13 0 0)
(-1.60909e-13 0 0)
(-1.43203e-13 0 0)
(-1.42606e-13 0 0)
(-1.40005e-13 0 0)
(-9.55254e-14 0 0)
(-1.12465e-13 0 0)
(-4.73227e-15 0 0)
(9.38769e-14 0 0)
(3.32889e-13 0 0)
(8.15987e-13 0 0)
(1.72678e-12 0 0)
(3.39045e-12 0 0)
(6.54315e-12 0 0)
(1.22574e-11 0 0)
(2.28886e-11 0 0)
(4.2147e-11 0 0)
(7.7147e-11 0 0)
(1.40347e-10 0 0)
(2.5331e-10 0 0)
(4.54257e-10 0 0)
(8.08847e-10 0 0)
(1.43064e-09 0 0)
(2.51304e-09 0 0)
(4.38419e-09 0 0)
(7.59551e-09 0 0)
(1.3067e-08 0 0)
(2.23209e-08 0 0)
(3.78566e-08 0 0)
(6.3742e-08 0 0)
(1.06546e-07 0 0)
(1.76781e-07 0 0)
(2.91133e-07 0 0)
(4.75849e-07 0 0)
(7.71854e-07 0 0)
(1.24238e-06 0 0)
(1.98421e-06 0 0)
(3.14415e-06 0 0)
(4.94271e-06 0 0)
(7.7079e-06 0 0)
(1.19228e-05 0 0)
(1.8292e-05 0 0)
(2.78321e-05 0 0)
(4.19947e-05 0 0)
(6.28312e-05 0 0)
(9.32077e-05 0 0)
(0.000137085 0 0)
(0.000199876 0 0)
(0.000288887 0 0)
(0.000413869 0 0)
(0.000587678 0 0)
(0.000827049 0 0)
(0.0011535 0 0)
(0.00159432 0 0)
(0.00218371 0 0)
(0.0029639 0 0)
(0.00398637 0 0)
(0.00531298 0 0)
(0.00701702 0 0)
(0.0091841 0 0)
(0.0119128 0 0)
(0.0153148 0 0)
(0.0195151 0 0)
(0.0246514 0 0)
(0.0308728 0 0)
(0.038339 0 0)
(0.047218 0 0)
(0.0576841 0 0)
(0.0699155 0 0)
(0.0840916 0 0)
(0.100391 0 0)
(0.118987 0 0)
(0.140048 0 0)
(0.163734 0 0)
(0.190193 0 0)
(0.219565 0 0)
(0.251975 0 0)
(0.287535 0 0)
(0.326347 0 0)
(0.368498 0 0)
(0.414063 0 0)
(0.463109 0 0)
(0.515689 0 0)
(0.571852 0 0)
(0.631635 0 0)
(0.695073 0 0)
(0.762191 0 0)
(0.833014 0 0)
(0.907562 0 0)
(0.985852 0 0)
(1.0679 0 0)
(1.15372 0 0)
(1.24333 0 0)
(1.33673 0 0)
(1.43394 0 0)
(1.53498 0 0)
(1.63986 0 0)
(1.74858 0 0)
(1.86116 0 0)
(1.97761 0 0)
(2.09796 0 0)
(2.2222 0 0)
(2.35036 0 0)
(2.48245 0 0)
(2.61848 0 0)
(2.75847 0 0)
(2.90244 0 0)
(3.0504 0 0)
(3.20237 0 0)
(3.35837 0 0)
(3.51842 0 0)
(3.68253 0 0)
(3.85074 0 0)
(4.02302 0 0)
(4.19951 0 0)
(4.37994 0 0)
(4.56495 0 0)
(4.75326 0 0)
(4.947 0 0)
(5.14414 0 0)
(5.34541 0 0)
(5.55106 0 0)
(5.76104 0 0)
(5.97533 0 0)
(6.19393 0 0)
(6.41688 0 0)
(6.64422 0 0)
(6.87595 0 0)
(7.11211 0 0)
(7.35272 0 0)
(7.5978 0 0)
(7.84739 0 0)
(8.10149 0 0)
(8.36015 0 0)
(8.62338 0 0)
(8.89122 0 0)
(9.16367 0 0)
(9.44078 0 0)
(9.72256 0 0)
(10.009 0 0)
(10.3002 0 0)
(10.5962 0 0)
(10.8969 0 0)
(11.2025 0 0)
(11.5128 0 0)
(11.8281 0 0)
(12.1482 0 0)
(12.4732 0 0)
(12.8031 0 0)
(13.138 0 0)
(13.4779 0 0)
(13.8228 0 0)
(14.1728 0 0)
(14.5278 0 0)
(14.888 0 0)
(15.2533 0 0)
(15.6238 0 0)
(15.9994 0 0)
(16.3803 0 0)
(16.7665 0 0)
(17.1579 0 0)
(17.5547 0 0)
(17.9568 0 0)
(18.3643 0 0)
(18.7773 0 0)
(19.1957 0 0)
(19.6196 0 0)
(20.049 0 0)
(20.484 0 0)
(20.9246 0 0)
(21.3708 0 0)
(21.8227 0 0)
(22.2802 0 0)
(22.7436 0 0)
(23.2125 0 0)
(23.6877 0 0)
(24.1679 0 0)
(24.6553 0 0)
(25.1464 0 0)
(25.6469 0 0)
(26.1481 0 0)
(26.6634 0 0)
(27.1728 0 0)
(27.7051 0 0)
(28.2207 0 0)
(28.7724 0 0)
(29.2925 0 0)
(29.8649 0 0)
(30.3892 0 0)
(30.9826 0 0)
(31.511 0 0)
(32.1258 0 0)
(32.6581 0 0)
(33.295 0 0)
(33.8309 0 0)
(34.4903 0 0)
(35.0296 0 0)
(35.7122 0 0)
(36.2546 0 0)
(36.961 0 0)
(37.5059 0 0)
(38.2369 0 0)
(38.7839 0 0)
(39.5403 0 0)
(40.0887 0 0)
(40.8715 0 0)
(41.4205 0 0)
(42.2308 0 0)
(42.7792 0 0)
(43.6177 0 0)
(44.1647 0 0)
(45.0316 0 0)
(45.5739 0 0)
(46.469 0 0)
(46.9959 0 0)
(47.9152 0 0)
(48.3849 0 0)
(49.8584 0 0)
)
;

boundaryField
{
    sideLeft
    {
        type            symmetryPlane;
    }
    sideRight
    {
        type            calculated;
        value           uniform (49.8584 0 0);
    }
    topbottom
    {
        type            empty;
    }
    frontback
    {
        type            empty;
    }
}


// ************************************************************************* //
