/*--------------------------------*- C++ -*----------------------------------*\
| =========                 |                                                 |
| \\      /  F ield         | OpenFOAM: The Open Source CFD Toolbox           |
|  \\    /   O peration     | Version:  2.4.0                                 |
|   \\  /    A nd           | Web:      www.OpenFOAM.org                      |
|    \\/     M anipulation  |                                                 |
\*---------------------------------------------------------------------------*/
FoamFile
{
    version     2.0;
    format      ascii;
    class       volVectorField;
    location    "0.05";
    object      U.water;
}
// * * * * * * * * * * * * * * * * * * * * * * * * * * * * * * * * * * * * * //

dimensions      [0 1 -1 0 0 0 0];

internalField   nonuniform List<vector> 
1000
(
(-1.77635e-13 0 0)
(-2.77112e-13 0 0)
(-2.91322e-13 0 0)
(1.20792e-13 0 0)
(2.27374e-13 0 0)
(1.35003e-13 0 0)
(-1.42106e-14 0 0)
(-9.94761e-14 0 0)
(2.84217e-14 0 0)
(-4.26327e-14 0 0)
(-3.90799e-13 0 0)
(-3.55271e-13 0 0)
(-2.98428e-13 0 0)
(-5.04485e-13 0 0)
(-3.19744e-13 0 0)
(2.13165e-14 0 0)
(2.98428e-13 0 0)
(6.39489e-14 0 0)
(1.20792e-13 0 0)
(-2.98428e-13 0 0)
(-4.12115e-13 0 0)
(-4.54747e-13 0 0)
(-2.41585e-13 0 0)
(1.42109e-14 0 0)
(-4.40536e-13 0 0)
(-7.31859e-13 0 0)
(-4.9738e-13 0 0)
(-3.19744e-13 0 0)
(-4.26325e-13 0 0)
(-6.11067e-13 0 0)
(-9.9476e-13 0 0)
(-7.74492e-13 0 0)
(-8.59757e-13 0 0)
(-9.45022e-13 0 0)
(-7.31859e-13 0 0)
(-6.11066e-13 0 0)
(-2.98429e-13 0 0)
(-4.12114e-13 0 0)
(-4.61853e-13 0 0)
(-6.53699e-13 0 0)
(-4.33431e-13 0 0)
(-6.11066e-13 0 0)
(-6.6791e-13 0 0)
(-8.81073e-13 0 0)
(-7.81597e-13 0 0)
(-6.6791e-13 0 0)
(-6.6791e-13 0 0)
(-7.60281e-13 0 0)
(-5.8975e-13 0 0)
(-4.54748e-13 0 0)
(-4.54747e-13 0 0)
(-2.13163e-13 0 0)
(-9.23704e-14 0 0)
(3.33955e-13 0 0)
(2.98428e-13 0 0)
(2.62901e-13 0 0)
(1.98952e-13 0 0)
(7.10544e-14 0 0)
(2.84217e-13 0 0)
(3.2685e-13 0 0)
(2.84217e-13 0 0)
(4.47642e-13 0 0)
(2.77112e-13 0 0)
(3.33955e-13 0 0)
(5.32907e-13 0 0)
(3.33955e-13 0 0)
(2.13163e-13 0 0)
(1.49214e-13 0 0)
(9.23707e-14 0 0)
(1.13687e-13 0 0)
(3.19745e-13 0 0)
(2.91322e-13 0 0)
(2.62901e-13 0 0)
(6.03961e-13 0 0)
(2.70006e-13 0 0)
(3.55274e-14 0 0)
(9.94756e-14 0 0)
(8.52654e-14 0 0)
(1.42109e-14 0 0)
(-4.9738e-14 0 0)
(2.13161e-14 0 0)
(5.25802e-13 0 0)
(5.25802e-13 0 0)
(4.26326e-13 0 0)
(4.54747e-13 0 0)
(7.24753e-13 0 0)
(1.02318e-12 0 0)
(7.31859e-13 0 0)
(5.68434e-13 0 0)
(4.26326e-13 0 0)
(3.97904e-13 0 0)
(2.98428e-13 0 0)
(-1.13687e-13 0 0)
(1.49214e-13 0 0)
(7.10548e-15 0 0)
(9.94757e-14 0 0)
(1.5632e-13 0 0)
(7.81594e-14 0 0)
(-1.56319e-13 0 0)
(-1.98952e-13 0 0)
(-1.27898e-13 0 0)
(-1.56319e-13 0 0)
(-2.06057e-13 0 0)
(-1.7053e-13 0 0)
(-1.91847e-13 0 0)
(-2.91322e-13 0 0)
(-2.4869e-13 0 0)
(-1.91847e-13 0 0)
(-7.81595e-14 0 0)
(-7.10544e-14 0 0)
(1.35003e-13 0 0)
(3.62377e-13 0 0)
(2.55795e-13 0 0)
(-1.42109e-14 0 0)
(-1.91846e-13 0 0)
(-1.77636e-13 0 0)
(-1.56319e-13 0 0)
(-1.27898e-13 0 0)
(-6.6791e-13 0 0)
(-6.89226e-13 0 0)
(-9.59233e-13 0 0)
(-7.81597e-13 0 0)
(-5.04485e-13 0 0)
(-4.54747e-13 0 0)
(-4.68958e-13 0 0)
(-7.60281e-13 0 0)
(-6.96332e-13 0 0)
(-6.89226e-13 0 0)
(-3.48166e-13 0 0)
(-3.83693e-13 0 0)
(-1.91847e-13 0 0)
(-2.70006e-13 0 0)
(-9.94761e-14 0 0)
(-1.77636e-13 0 0)
(1.13687e-13 0 0)
(8.52653e-14 0 0)
(-2.20268e-13 0 0)
(-3.2685e-13 0 0)
(-2.98428e-13 0 0)
(-4.1922e-13 0 0)
(-6.89226e-13 0 0)
(-9.09495e-13 0 0)
(-1.03029e-12 0 0)
(-1.00897e-12 0 0)
(-8.73967e-13 0 0)
(-5.96856e-13 0 0)
(-4.61853e-13 0 0)
(-4.1922e-13 0 0)
(-3.69482e-13 0 0)
(-3.41061e-13 0 0)
(-4.33431e-13 0 0)
(-6.03961e-13 0 0)
(-2.41585e-13 0 0)
(-5.68433e-14 0 0)
(-2.84218e-14 0 0)
(7.81597e-14 0 0)
(-7.4528e-20 0 0)
(-2.34479e-13 0 0)
(-2.4869e-13 0 0)
(-3.12639e-13 0 0)
(-4.47642e-13 0 0)
(-2.4869e-13 0 0)
(-1.35003e-13 0 0)
(1.35003e-13 0 0)
(1.35003e-13 0 0)
(2.55795e-13 0 0)
(-1.56319e-13 0 0)
(-1.42111e-14 0 0)
(-1.42108e-14 0 0)
(4.26328e-14 0 0)
(-5.68436e-14 0 0)
(-7.10549e-15 0 0)
(-3.5527e-14 0 0)
(1.42108e-13 0 0)
(2.84217e-13 0 0)
(2.77111e-13 0 0)
(3.97904e-13 0 0)
(3.62377e-13 0 0)
(3.90799e-13 0 0)
(2.20268e-13 0 0)
(5.68434e-14 0 0)
(9.23705e-14 0 0)
(4.26326e-13 0 0)
(3.41061e-13 0 0)
(3.19744e-13 0 0)
(3.05534e-13 0 0)
(1.7053e-13 0 0)
(9.94766e-14 0 0)
(3.97903e-13 0 0)
(3.33955e-13 0 0)
(2.27374e-13 0 0)
(1.4211e-14 0 0)
(1.13687e-13 0 0)
(7.10543e-14 0 0)
(-7.10542e-14 0 0)
(-1.98952e-13 0 0)
(-1.27898e-13 0 0)
(5.68434e-14 0 0)
(2.13164e-14 0 0)
(-2.41585e-13 0 0)
(-3.05534e-13 0 0)
(-3.26849e-13 0 0)
(-4.97382e-14 0 0)
(-1.42108e-13 0 0)
(-2.91323e-13 0 0)
(-5.68433e-14 0 0)
(-2.98428e-13 0 0)
(-5.75539e-13 0 0)
(-6.39488e-13 0 0)
(-6.25278e-13 0 0)
(-4.33431e-13 0 0)
(-2.62901e-13 0 0)
(-4.83169e-13 0 0)
(-6.32383e-13 0 0)
(-6.89226e-13 0 0)
(-7.17648e-13 0 0)
(-6.75016e-13 0 0)
(-4.47642e-13 0 0)
(-5.68434e-13 0 0)
(-5.82645e-13 0 0)
(-4.12115e-13 0 0)
(-3.83693e-13 0 0)
(-1.63425e-13 0 0)
(-7.81599e-14 0 0)
(-9.23702e-14 0 0)
(-7.10546e-14 0 0)
(3.2685e-13 0 0)
(4.61853e-13 0 0)
(4.9738e-13 0 0)
(6.25278e-13 0 0)
(5.18696e-13 0 0)
(4.1922e-13 0 0)
(5.68434e-13 0 0)
(4.40536e-13 0 0)
(4.40537e-13 0 0)
(4.90274e-13 0 0)
(2.4869e-13 0 0)
(3.48166e-13 0 0)
(3.97904e-13 0 0)
(1.98952e-13 0 0)
(1.98952e-13 0 0)
(2.77112e-13 0 0)
(2.84221e-14 0 0)
(7.10506e-15 0 0)
(-1.7053e-13 0 0)
(-9.23708e-14 0 0)
(8.52653e-14 0 0)
(9.94758e-14 0 0)
(-7.81596e-14 0 0)
(1.91846e-13 0 0)
(1.13687e-13 0 0)
(-1.5632e-13 0 0)
(-1.42109e-13 0 0)
(4.97381e-14 0 0)
(2.27373e-13 0 0)
(4.54748e-13 0 0)
(3.83693e-13 0 0)
(2.62901e-13 0 0)
(4.97376e-14 0 0)
(-3.12638e-13 0 0)
(-8.52656e-14 0 0)
(-1.56319e-13 0 0)
(9.94757e-14 0 0)
(1.35003e-13 0 0)
(2.27374e-13 0 0)
(1.49214e-13 0 0)
(-3.26849e-13 0 0)
(-1.70531e-13 0 0)
(-3.55269e-14 0 0)
(4.1922e-13 0 0)
(1.49214e-13 0 0)
(-1.45277e-19 0 0)
(-4.97379e-14 0 0)
(1.49214e-13 0 0)
(4.97379e-14 0 0)
(-7.81598e-14 0 0)
(1.98952e-13 0 0)
(4.1922e-13 0 0)
(4.0501e-13 0 0)
(3.12639e-13 0 0)
(1.35003e-13 0 0)
(2.84217e-13 0 0)
(3.48166e-13 0 0)
(2.06058e-13 0 0)
(3.69482e-13 0 0)
(3.55272e-13 0 0)
(3.4106e-13 0 0)
(5.54224e-13 0 0)
(8.52651e-13 0 0)
(9.166e-13 0 0)
(9.30811e-13 0 0)
(8.59757e-13 0 0)
(1.22924e-12 0 0)
(1.28608e-12 0 0)
(9.166e-13 0 0)
(4.76064e-13 0 0)
(1.98952e-13 0 0)
(-3.55275e-14 0 0)
(-2.06057e-13 0 0)
(-7.67386e-13 0 0)
(-8.2423e-13 0 0)
(-6.32383e-13 0 0)
(-7.88702e-13 0 0)
(-4.9738e-13 0 0)
(-3.55271e-13 0 0)
(-3.05534e-13 0 0)
(-3.4106e-13 0 0)
(-4.12115e-13 0 0)
(-2.62901e-13 0 0)
(-5.68434e-14 0 0)
(-2.13163e-13 0 0)
(-4.12115e-13 0 0)
(-3.83693e-13 0 0)
(-5.47118e-13 0 0)
(-6.46594e-13 0 0)
(-6.18172e-13 0 0)
(-6.18172e-13 0 0)
(-5.04485e-13 0 0)
(-2.98428e-13 0 0)
(6.39487e-14 0 0)
(2.91323e-13 0 0)
(9.94762e-14 0 0)
(9.23704e-14 0 0)
(3.33955e-13 0 0)
(3.12639e-13 0 0)
(2.84217e-13 0 0)
(4.90275e-13 0 0)
(3.33955e-13 0 0)
(1.84741e-13 0 0)
(3.2685e-13 0 0)
(5.04485e-13 0 0)
(3.48166e-13 0 0)
(3.55272e-13 0 0)
(4.68958e-13 0 0)
(3.41061e-13 0 0)
(2.91322e-13 0 0)
(5.32907e-13 0 0)
(6.96332e-13 0 0)
(4.61853e-13 0 0)
(3.83693e-13 0 0)
(4.33431e-13 0 0)
(1.27898e-13 0 0)
(5.68433e-14 0 0)
(2.06058e-13 0 0)
(5.25801e-13 0 0)
(2.84218e-13 0 0)
(2.91322e-13 0 0)
(9.23711e-14 0 0)
(-7.10582e-15 0 0)
(-1.27898e-13 0 0)
(-2.91323e-13 0 0)
(-3.2685e-13 0 0)
(-6.32383e-13 0 0)
(-6.6791e-13 0 0)
(-3.33955e-13 0 0)
(1.20792e-13 0 0)
(3.41061e-13 0 0)
(4.9738e-13 0 0)
(3.19744e-13 0 0)
(6.39488e-14 0 0)
(4.26326e-14 0 0)
(5.68433e-14 0 0)
(-1.42107e-14 0 0)
(-2.13161e-14 0 0)
(4.97378e-14 0 0)
(1.91846e-13 0 0)
(2.91323e-13 0 0)
(2.20268e-13 0 0)
(-1.56319e-13 0 0)
(-1.56319e-13 0 0)
(-4.35901e-20 0 0)
(-3.69482e-13 0 0)
(-3.48166e-13 0 0)
(4.26324e-14 0 0)
(-1.7053e-13 0 0)
(-1.63425e-13 0 0)
(-4.1922e-13 0 0)
(-6.18172e-13 0 0)
(-6.89226e-13 0 0)
(-4.0501e-13 0 0)
(-3.33955e-13 0 0)
(-4.19221e-13 0 0)
(-6.75015e-13 0 0)
(-7.81597e-13 0 0)
(-7.88703e-13 0 0)
(-7.81596e-13 0 0)
(-4.54748e-13 0 0)
(-3.55271e-13 0 0)
(-3.55275e-14 0 0)
(-3.05533e-13 0 0)
(-1.27898e-13 0 0)
(-1.27898e-13 0 0)
(-2.98428e-13 0 0)
(-3.05533e-13 0 0)
(-3.19745e-13 0 0)
(-6.39486e-14 0 0)
(-1.42109e-13 0 0)
(-1.56319e-13 0 0)
(2.70006e-13 0 0)
(8.52651e-14 0 0)
(1.20792e-13 0 0)
(-6.39489e-14 0 0)
(-2.41584e-13 0 0)
(-3.05534e-13 0 0)
(-3.12639e-13 0 0)
(-3.97904e-13 0 0)
(-5.40013e-13 0 0)
(-4.83169e-13 0 0)
(-3.62377e-13 0 0)
(1.42107e-14 0 0)
(1.7053e-13 0 0)
(2.70006e-13 0 0)
(2.13163e-13 0 0)
(2.4869e-13 0 0)
(7.81595e-14 0 0)
(2.06058e-13 0 0)
(-9.23708e-14 0 0)
(-1.91847e-13 0 0)
(-1.56319e-13 0 0)
(1.27897e-13 0 0)
(3.90799e-13 0 0)
(4.40536e-13 0 0)
(5.11591e-13 0 0)
(5.8975e-13 0 0)
(4.76064e-13 0 0)
(5.25802e-13 0 0)
(5.7554e-13 0 0)
(4.26326e-13 0 0)
(1.91846e-13 0 0)
(7.81599e-14 0 0)
(6.39486e-14 0 0)
(1.91847e-13 0 0)
(-1.63425e-13 0 0)
(-2.41585e-13 0 0)
(-5.68435e-14 0 0)
(-9.23705e-14 0 0)
(1.35003e-13 0 0)
(2.13165e-14 0 0)
(1.27897e-13 0 0)
(3.29244e-19 0 0)
(-8.52654e-14 0 0)
(-5.61329e-13 0 0)
(-5.40012e-13 0 0)
(-3.69482e-13 0 0)
(-1.42109e-13 0 0)
(-1.13687e-13 0 0)
(-2.13162e-14 0 0)
(2.13163e-13 0 0)
(7.81597e-14 0 0)
(2.13163e-13 0 0)
(2.84217e-14 0 0)
(5.68435e-14 0 0)
(7.81595e-14 0 0)
(-3.62377e-13 0 0)
(-2.06057e-13 0 0)
(9.23702e-14 0 0)
(-6.39487e-14 0 0)
(-1.42108e-13 0 0)
(-5.68436e-14 0 0)
(-1.49214e-13 0 0)
(1.56319e-13 0 0)
(-1.42105e-14 0 0)
(-2.13166e-14 0 0)
(3.55274e-14 0 0)
(4.26325e-13 0 0)
(4.40537e-13 0 0)
(2.4869e-13 0 0)
(-2.20268e-13 0 0)
(-2.55796e-13 0 0)
(-1.42108e-13 0 0)
(-3.41061e-13 0 0)
(-3.4106e-13 0 0)
(-2.62901e-13 0 0)
(-3.33955e-13 0 0)
(-1.49214e-13 0 0)
(1.06581e-13 0 0)
(3.90799e-13 0 0)
(3.12638e-13 0 0)
(-4.26324e-14 0 0)
(1.42108e-14 0 0)
(-1.49214e-13 0 0)
(4.26324e-14 0 0)
(2.62901e-13 0 0)
(3.62377e-13 0 0)
(3.12639e-13 0 0)
(4.1922e-13 0 0)
(3.90798e-13 0 0)
(3.55271e-13 0 0)
(2.27374e-13 0 0)
(2.62901e-13 0 0)
(1.06581e-13 0 0)
(-9.23705e-14 0 0)
(-1.27898e-13 0 0)
(-9.94759e-14 0 0)
(-1.35003e-13 0 0)
(-2.55796e-13 0 0)
(-2.91322e-13 0 0)
(-2.91322e-13 0 0)
(-2.27374e-13 0 0)
(-1.7053e-13 0 0)
(-3.12639e-13 0 0)
(-5.11591e-13 0 0)
(-3.83693e-13 0 0)
(-2.91323e-13 0 0)
(-5.32907e-13 0 0)
(-6.32383e-13 0 0)
(-8.31335e-13 0 0)
(-7.4607e-13 0 0)
(-9.09494e-13 0 0)
(-6.18172e-13 0 0)
(-4.47642e-13 0 0)
(-2.98428e-13 0 0)
(-2.4869e-13 0 0)
(2.13163e-13 0 0)
(3.48166e-13 0 0)
(2.41584e-13 0 0)
(3.55272e-13 0 0)
(4.61853e-13 0 0)
(6.32383e-13 0 0)
(2.77112e-13 0 0)
(2.91322e-13 0 0)
(8.52652e-14 0 0)
(7.81597e-14 0 0)
(-7.10542e-14 0 0)
(-3.19744e-13 0 0)
(-5.04485e-13 0 0)
(-3.2685e-13 0 0)
(-4.1922e-13 0 0)
(-5.96856e-13 0 0)
(-7.38964e-13 0 0)
(-2.91323e-13 0 0)
(-7.1054e-14 0 0)
(1.27897e-13 0 0)
(1.77636e-13 0 0)
(-9.23708e-14 0 0)
(1.91847e-13 0 0)
(2.55795e-13 0 0)
(2.20268e-13 0 0)
(9.9476e-14 0 0)
(1.77636e-13 0 0)
(2.4869e-13 0 0)
(9.94759e-14 0 0)
(8.52654e-14 0 0)
(7.10522e-15 0 0)
(-1.84741e-13 0 0)
(-2.62901e-13 0 0)
(-1.06582e-13 0 0)
(-7.81597e-14 0 0)
(1.77636e-13 0 0)
(2.70006e-13 0 0)
(1.98952e-13 0 0)
(-4.97379e-14 0 0)
(-1.27898e-13 0 0)
(-3.97904e-13 0 0)
(-5.61329e-13 0 0)
(-3.05533e-13 0 0)
(-2.84217e-14 0 0)
(1.91847e-13 0 0)
(2.70006e-13 0 0)
(1.63425e-13 0 0)
(2.41585e-13 0 0)
(6.25277e-13 0 0)
(4.9738e-13 0 0)
(5.8975e-13 0 0)
(6.6791e-13 0 0)
(6.11067e-13 0 0)
(4.33431e-13 0 0)
(9.94761e-14 0 0)
(-1.56319e-13 0 0)
(-3.55271e-13 0 0)
(-2.55796e-13 0 0)
(-3.69482e-13 0 0)
(-2.91323e-13 0 0)
(-3.48166e-13 0 0)
(-4.61853e-13 0 0)
(-3.76588e-13 0 0)
(-1.63425e-13 0 0)
(-4.9738e-14 0 0)
(-7.10541e-14 0 0)
(-4.97381e-14 0 0)
(-2.13163e-14 0 0)
(3.4106e-13 0 0)
(3.90799e-13 0 0)
(5.8975e-13 0 0)
(6.25278e-13 0 0)
(4.26326e-13 0 0)
(2.20268e-13 0 0)
(1.06581e-13 0 0)
(-9.94757e-14 0 0)
(3.55268e-14 0 0)
(-1.13687e-13 0 0)
(2.1316e-14 0 0)
(1.42111e-14 0 0)
(1.98952e-13 0 0)
(5.32907e-13 0 0)
(7.88702e-13 0 0)
(1.03029e-12 0 0)
(1.14397e-12 0 0)
(1.01608e-12 0 0)
(9.73444e-13 0 0)
(8.88178e-13 0 0)
(7.17648e-13 0 0)
(8.38441e-13 0 0)
(9.9476e-13 0 0)
(1.12266e-12 0 0)
(8.45546e-13 0 0)
(6.96332e-13 0 0)
(6.03962e-13 0 0)
(7.53175e-13 0 0)
(5.89751e-13 0 0)
(3.48166e-13 0 0)
(1.91847e-13 0 0)
(9.23707e-14 0 0)
(1.06581e-13 0 0)
(2.13164e-14 0 0)
(7.81593e-14 0 0)
(-2.34478e-13 0 0)
(-2.70007e-13 0 0)
(-3.83693e-13 0 0)
(-4.33431e-13 0 0)
(-7.17648e-13 0 0)
(-5.89751e-13 0 0)
(-4.54747e-13 0 0)
(-4.90275e-13 0 0)
(-3.55271e-13 0 0)
(-1.20792e-13 0 0)
(-2.84216e-14 0 0)
(1.13687e-13 0 0)
(9.94761e-14 0 0)
(1.35003e-13 0 0)
(2.62901e-13 0 0)
(2.4869e-13 0 0)
(1.42108e-13 0 0)
(7.10547e-14 0 0)
(2.84213e-14 0 0)
(-6.39482e-14 0 0)
(7.10537e-14 0 0)
(-1.13686e-13 0 0)
(2.84215e-14 0 0)
(-1.35003e-13 0 0)
(-1.5632e-13 0 0)
(-2.62901e-13 0 0)
(5.68431e-14 0 0)
(8.52652e-14 0 0)
(6.39489e-14 0 0)
(-1.06581e-13 0 0)
(-1.84741e-13 0 0)
(-1.7053e-13 0 0)
(-1.06581e-13 0 0)
(7.10542e-14 0 0)
(6.39488e-14 0 0)
(-1.35003e-13 0 0)
(-3.97904e-13 0 0)
(-4.26326e-13 0 0)
(-4.76063e-13 0 0)
(-3.62377e-13 0 0)
(-5.54223e-13 0 0)
(-4.90275e-13 0 0)
(-5.8975e-13 0 0)
(-3.55272e-13 0 0)
(-4.90274e-13 0 0)
(-4.19221e-13 0 0)
(-4.83169e-13 0 0)
(-1.56319e-13 0 0)
(-1.84741e-13 0 0)
(-1.4211e-14 0 0)
(1.13687e-13 0 0)
(2.77112e-13 0 0)
(2.84218e-14 0 0)
(-3.2685e-13 0 0)
(-3.76587e-13 0 0)
(-3.12639e-13 0 0)
(-2.84216e-14 0 0)
(-1.98952e-13 0 0)
(-4.40537e-13 0 0)
(-1.7053e-13 0 0)
(1.42108e-14 0 0)
(-2.98428e-13 0 0)
(-3.83693e-13 0 0)
(-2.77112e-13 0 0)
(-1.91847e-13 0 0)
(-1.35003e-13 0 0)
(-9.23706e-14 0 0)
(2.13163e-13 0 0)
(2.77111e-13 0 0)
(2.97298e-19 0 0)
(2.98428e-13 0 0)
(-1.63424e-13 0 0)
(-1.42109e-13 0 0)
(-3.90798e-13 0 0)
(-3.48166e-13 0 0)
(-5.40012e-13 0 0)
(-3.90799e-13 0 0)
(9.94761e-14 0 0)
(2.98428e-13 0 0)
(1.49214e-13 0 0)
(-2.13161e-14 0 0)
(2.20268e-13 0 0)
(2.4869e-13 0 0)
(1.84741e-13 0 0)
(3.48166e-13 0 0)
(5.04485e-13 0 0)
(5.54223e-13 0 0)
(6.39489e-13 0 0)
(6.25278e-13 0 0)
(4.54747e-13 0 0)
(2.55796e-13 0 0)
(2.77111e-13 0 0)
(2.91323e-13 0 0)
(5.68434e-13 0 0)
(6.18173e-13 0 0)
(2.55795e-13 0 0)
(2.20268e-13 0 0)
(-1.06581e-13 0 0)
(-2.41585e-13 0 0)
(-1.84741e-13 0 0)
(-1.20793e-13 0 0)
(-9.94755e-14 0 0)
(-1.91847e-13 0 0)
(-4.90274e-13 0 0)
(-4.33431e-13 0 0)
(-6.25278e-13 0 0)
(-4.1922e-13 0 0)
(-4.68958e-13 0 0)
(-4.90274e-13 0 0)
(-3.33955e-13 0 0)
(-5.04485e-13 0 0)
(-2.34479e-13 0 0)
(-5.68433e-14 0 0)
(1.49214e-13 0 0)
(1.42108e-13 0 0)
(2.06057e-13 0 0)
(9.23706e-14 0 0)
(1.27898e-13 0 0)
(1.63425e-13 0 0)
(3.48166e-13 0 0)
(4.54747e-13 0 0)
(3.90799e-13 0 0)
(2.06058e-13 0 0)
(6.39488e-14 0 0)
(2.13163e-14 0 0)
(3.26849e-13 0 0)
(4.26326e-13 0 0)
(6.75015e-13 0 0)
(8.10019e-13 0 0)
(8.10019e-13 0 0)
(7.38964e-13 0 0)
(6.82121e-13 0 0)
(6.39488e-13 0 0)
(7.4607e-13 0 0)
(5.96856e-13 0 0)
(2.91323e-13 0 0)
(1.77636e-13 0 0)
(8.52652e-14 0 0)
(4.54747e-13 0 0)
(2.84217e-13 0 0)
(1.98952e-13 0 0)
(-6.39489e-14 0 0)
(-1.56319e-13 0 0)
(-2.13164e-14 0 0)
(7.10541e-15 0 0)
(-4.12115e-13 0 0)
(-4.90274e-13 0 0)
(-4.0501e-13 0 0)
(-3.97904e-13 0 0)
(-3.69483e-13 0 0)
(-5.04485e-13 0 0)
(-5.54223e-13 0 0)
(-5.54223e-13 0 0)
(-3.55271e-13 0 0)
(-2.41585e-13 0 0)
(-1.7053e-13 0 0)
(-3.48166e-13 0 0)
(-3.90799e-13 0 0)
(-6.11066e-13 0 0)
(-3.69483e-13 0 0)
(-3.48166e-13 0 0)
(-3.97904e-13 0 0)
(-3.76588e-13 0 0)
(-4.05009e-13 0 0)
(-2.77112e-13 0 0)
(-2.55795e-13 0 0)
(-1.49214e-13 0 0)
(-9.94759e-14 0 0)
(4.1922e-13 0 0)
(8.52651e-13 0 0)
(1.84031e-12 0 0)
(3.73035e-12 0 0)
(7.16938e-12 0 0)
(1.45022e-11 0 0)
(2.76117e-11 0 0)
(5.28644e-11 0 0)
(1.00421e-10 0 0)
(1.88578e-10 0 0)
(3.52465e-10 0 0)
(6.54566e-10 0 0)
(1.20714e-09 0 0)
(2.21186e-09 0 0)
(4.02494e-09 0 0)
(7.27486e-09 0 0)
(1.30604e-08 0 0)
(2.32879e-08 0 0)
(4.12406e-08 0 0)
(7.25294e-08 0 0)
(1.26668e-07 0 0)
(2.1966e-07 0 0)
(3.78207e-07 0 0)
(6.46503e-07 0 0)
(1.09708e-06 0 0)
(1.84796e-06 0 0)
(3.08958e-06 0 0)
(5.12647e-06 0 0)
(8.44133e-06 0 0)
(1.37923e-05 0 0)
(2.23593e-05 0 0)
(3.59609e-05 0 0)
(5.73738e-05 0 0)
(9.07956e-05 0 0)
(0.000142508 0 0)
(0.000221818 0 0)
(0.000342366 0 0)
(0.000523932 0 0)
(0.000794886 0 0)
(0.00119546 0 0)
(0.00178204 0 0)
(0.00263274 0 0)
(0.00385441 0 0)
(0.00559143 0 0)
(0.00803628 0 0)
(0.0114422 0 0)
(0.0161378 0 0)
(0.0225431 0 0)
(0.0311874 0 0)
(0.042727 0 0)
(0.057963 0 0)
(0.0778563 0 0)
(0.10354 0 0)
(0.136324 0 0)
(0.177696 0 0)
(0.229309 0 0)
(0.292961 0 0)
(0.370558 0 0)
(0.464077 0 0)
(0.575504 0 0)
(0.706775 0 0)
(0.859705 0 0)
(1.03592 0 0)
(1.2368 0 0)
(1.4634 0 0)
(1.71643 0 0)
(1.99621 0 0)
(2.30264 0 0)
(2.63524 0 0)
(2.99316 0 0)
(3.3752 0 0)
(3.77987 0 0)
(4.20547 0 0)
(4.65014 0 0)
(5.11191 0 0)
(5.58879 0 0)
(6.07885 0 0)
(6.58021 0 0)
(7.09112 0 0)
(7.61001 0 0)
(8.13545 0 0)
(8.66622 0 0)
(9.20127 0 0)
(9.73973 0 0)
(10.2809 0 0)
(10.8242 0 0)
(11.3691 0 0)
(11.9154 0 0)
(12.4628 0 0)
(13.0112 0 0)
(13.5603 0 0)
(14.1101 0 0)
(14.6606 0 0)
(15.2117 0 0)
(15.7635 0 0)
(16.3159 0 0)
(16.869 0 0)
(17.4228 0 0)
(17.9773 0 0)
(18.5326 0 0)
(19.0887 0 0)
(19.6457 0 0)
(20.2037 0 0)
(20.7626 0 0)
(21.3226 0 0)
(21.8836 0 0)
(22.4459 0 0)
(23.0093 0 0)
(23.5741 0 0)
(24.1401 0 0)
(24.708 0 0)
(25.2763 0 0)
(25.8481 0 0)
(26.4179 0 0)
(26.995 0 0)
(27.5651 0 0)
(28.1455 0 0)
(28.7237 0 0)
(29.3007 0 0)
(29.88 0 0)
(30.462 0 0)
(31.0458 0 0)
(31.6312 0 0)
(32.2183 0 0)
(32.8073 0 0)
(33.3981 0 0)
(33.9908 0 0)
(34.5853 0 0)
(35.1816 0 0)
(35.7798 0 0)
(36.3798 0 0)
(36.9816 0 0)
(37.5851 0 0)
(38.1905 0 0)
(38.7975 0 0)
(39.4064 0 0)
(40.0169 0 0)
(40.6291 0 0)
(41.243 0 0)
(41.8586 0 0)
(42.4759 0 0)
(43.0949 0 0)
(43.7156 0 0)
(44.3381 0 0)
(44.9623 0 0)
(45.5883 0 0)
(46.2161 0 0)
(46.8457 0 0)
(47.4771 0 0)
(48.1104 0 0)
(48.7456 0 0)
(49.3826 0 0)
(50.0217 0 0)
(50.6627 0 0)
(51.3057 0 0)
(51.9506 0 0)
(52.5977 0 0)
(53.2467 0 0)
(53.8978 0 0)
(54.551 0 0)
(55.2063 0 0)
(55.8635 0 0)
(56.5229 0 0)
(57.1843 0 0)
(57.8476 0 0)
(58.5131 0 0)
(59.1804 0 0)
(59.85 0 0)
(60.5208 0 0)
(61.1951 0 0)
(61.8686 0 0)
(62.5491 0 0)
(63.2227 0 0)
(63.9135 0 0)
(64.5808 0 0)
(65.2912 0 0)
(65.9394 0 0)
(66.6859 0 0)
(67.295 0 0)
(68.0994 0 0)
(68.6489 0 0)
(69.5253 0 0)
(70.0131 0 0)
(70.9439 0 0)
(71.4092 0 0)
(72.3492 0 0)
(72.8215 0 0)
(73.7635 0 0)
(74.2362 0 0)
(75.1861 0 0)
(75.6611 0 0)
(76.6134 0 0)
(77.0909 0 0)
(78.0487 0 0)
(78.5276 0 0)
(79.4883 0 0)
(79.9694 0 0)
(80.9341 0 0)
(81.4166 0 0)
(82.3844 0 0)
(82.8685 0 0)
(83.8393 0 0)
(84.3245 0 0)
(85.2978 0 0)
(85.784 0 0)
(86.7571 0 0)
(87.2481 0 0)
(88.2152 0 0)
(88.7111 0 0)
(89.6719 0 0)
(90.1699 0 0)
(91.1182 0 0)
(91.6123 0 0)
(92.5403 0 0)
(93.0251 0 0)
(94.6828 0 0)
)
;

boundaryField
{
    sideLeft
    {
        type            symmetryPlane;
    }
    sideRight
    {
        type            zeroGradient;
    }
    topbottom
    {
        type            empty;
    }
    frontback
    {
        type            empty;
    }
}


// ************************************************************************* //
