/*--------------------------------*- C++ -*----------------------------------*\
| =========                 |                                                 |
| \\      /  F ield         | OpenFOAM: The Open Source CFD Toolbox           |
|  \\    /   O peration     | Version:  2.4.0                                 |
|   \\  /    A nd           | Web:      www.OpenFOAM.org                      |
|    \\/     M anipulation  |                                                 |
\*---------------------------------------------------------------------------*/
FoamFile
{
    version     2.0;
    format      ascii;
    class       volVectorField;
    location    "0.05";
    object      Ur;
}
// * * * * * * * * * * * * * * * * * * * * * * * * * * * * * * * * * * * * * //

dimensions      [0 1 -1 0 0 0 0];

internalField   nonuniform List<vector> 
1000
(
(2.84217e-14 0 0)
(-2.13163e-14 0 0)
(-4.26326e-14 0 0)
(-2.13163e-14 0 0)
(-4.9738e-14 0 0)
(5.68434e-14 0 0)
(5.68434e-14 0 0)
(-7.10543e-15 0 0)
(-1.64751e-22 0 0)
(1.42109e-14 0 0)
(2.13163e-14 0 0)
(-1.42109e-14 0 0)
(2.13163e-14 0 0)
(1.42109e-14 0 0)
(-1.42109e-14 0 0)
(-3.55271e-14 0 0)
(1.62445e-21 0 0)
(2.13163e-14 0 0)
(-1.42109e-14 0 0)
(-3.55271e-14 0 0)
(-7.10543e-15 0 0)
(2.84217e-14 0 0)
(2.13163e-14 0 0)
(-2.84217e-14 0 0)
(-2.13163e-14 0 0)
(1.42109e-14 0 0)
(-3.55271e-14 0 0)
(1.42109e-14 0 0)
(2.84217e-14 0 0)
(-2.13163e-14 0 0)
(4.26326e-14 0 0)
(-7.10543e-15 0 0)
(-7.10543e-14 0 0)
(1.42109e-14 0 0)
(-7.10543e-15 0 0)
(-2.85975e-21 0 0)
(-2.13163e-14 0 0)
(-4.9738e-14 0 0)
(-2.13163e-14 0 0)
(-2.13163e-14 0 0)
(7.10543e-15 0 0)
(8.52651e-14 0 0)
(6.39488e-14 0 0)
(1.83665e-21 0 0)
(-2.13163e-14 0 0)
(-1.08341e-21 0 0)
(2.13163e-14 0 0)
(-5.68434e-14 0 0)
(-9.9476e-14 0 0)
(1.42109e-14 0 0)
(7.81597e-14 0 0)
(-7.54079e-22 0 0)
(2.13163e-14 0 0)
(-4.26326e-14 0 0)
(7.10543e-15 0 0)
(8.52651e-14 0 0)
(7.10543e-15 0 0)
(2.84217e-14 0 0)
(1.42109e-14 0 0)
(-2.84217e-14 0 0)
(1.03228e-21 0 0)
(-7.10543e-15 0 0)
(2.13163e-14 0 0)
(7.49733e-22 0 0)
(7.10543e-15 0 0)
(-1.42109e-14 0 0)
(-2.13163e-14 0 0)
(2.13163e-14 0 0)
(-4.26326e-14 0 0)
(7.10542e-15 0 0)
(6.39488e-14 0 0)
(-5.68434e-14 0 0)
(-6.39488e-14 0 0)
(5.68434e-14 0 0)
(2.13163e-14 0 0)
(-2.13163e-14 0 0)
(-1.42109e-14 0 0)
(2.13163e-14 0 0)
(1.42109e-14 0 0)
(-4.26326e-14 0 0)
(4.26326e-14 0 0)
(6.39488e-14 0 0)
(-2.13163e-14 0 0)
(-6.39488e-14 0 0)
(-2.13163e-14 0 0)
(4.26326e-14 0 0)
(-2.84217e-14 0 0)
(2.00358e-21 0 0)
(-7.10543e-15 0 0)
(-1.8537e-21 0 0)
(2.13163e-14 0 0)
(-2.84217e-14 0 0)
(1.42109e-14 0 0)
(2.84217e-14 0 0)
(1.42109e-14 0 0)
(2.13163e-14 0 0)
(7.10543e-14 0 0)
(-6.39488e-14 0 0)
(-1.06581e-13 0 0)
(-2.13163e-14 0 0)
(5.68434e-14 0 0)
(4.26326e-14 0 0)
(-6.39488e-14 0 0)
(2.13163e-14 0 0)
(7.10543e-15 0 0)
(-3.55271e-14 0 0)
(-2.84217e-14 0 0)
(-2.84217e-14 0 0)
(4.26326e-14 0 0)
(4.9738e-14 0 0)
(-7.81597e-14 0 0)
(-7.10543e-15 0 0)
(7.81597e-14 0 0)
(-2.13163e-14 0 0)
(9.40717e-22 0 0)
(-6.97936e-22 0 0)
(-3.55271e-14 0 0)
(-5.68434e-14 0 0)
(-7.10543e-15 0 0)
(5.68434e-14 0 0)
(-7.10542e-15 0 0)
(-7.10543e-15 0 0)
(7.10543e-15 0 0)
(-1.42109e-14 0 0)
(-2.13163e-14 0 0)
(-3.55271e-14 0 0)
(3.55271e-14 0 0)
(7.10543e-14 0 0)
(-7.10543e-15 0 0)
(-5.68434e-14 0 0)
(1.93824e-21 0 0)
(4.26326e-14 0 0)
(1.01808e-21 0 0)
(-2.13163e-14 0 0)
(-2.84217e-14 0 0)
(1.42109e-14 0 0)
(7.81597e-14 0 0)
(1.42109e-14 0 0)
(-1.42109e-14 0 0)
(-3.55271e-14 0 0)
(-2.13163e-14 0 0)
(7.10543e-15 0 0)
(-2.84217e-14 0 0)
(4.9738e-14 0 0)
(4.9738e-14 0 0)
(-3.55271e-14 0 0)
(-2.84217e-14 0 0)
(1.42109e-14 0 0)
(-4.9738e-14 0 0)
(-1.6592e-21 0 0)
(9.23706e-14 0 0)
(1.42109e-14 0 0)
(-2.13163e-14 0 0)
(-1.42109e-14 0 0)
(2.36433e-22 0 0)
(7.81597e-14 0 0)
(7.10543e-15 0 0)
(-1.06581e-13 0 0)
(-5.68434e-14 0 0)
(3.55271e-14 0 0)
(2.84217e-14 0 0)
(-2.13163e-14 0 0)
(1.42109e-14 0 0)
(1.42109e-14 0 0)
(7.10543e-15 0 0)
(-5.68434e-14 0 0)
(-2.13163e-14 0 0)
(2.84217e-14 0 0)
(-7.10543e-15 0 0)
(2.84217e-14 0 0)
(7.10543e-15 0 0)
(-6.39488e-14 0 0)
(-2.13163e-14 0 0)
(7.10543e-15 0 0)
(7.10543e-15 0 0)
(-2.13163e-14 0 0)
(-2.13163e-14 0 0)
(7.81597e-14 0 0)
(7.10543e-15 0 0)
(-5.68434e-14 0 0)
(4.9738e-14 0 0)
(2.84217e-14 0 0)
(-1.42109e-14 0 0)
(1.48526e-21 0 0)
(-4.9738e-14 0 0)
(4.9738e-14 0 0)
(4.9738e-14 0 0)
(-4.26326e-14 0 0)
(-4.9738e-14 0 0)
(-1.42109e-14 0 0)
(1.42109e-14 0 0)
(4.9738e-14 0 0)
(7.93846e-22 0 0)
(-4.9738e-14 0 0)
(9.30704e-23 0 0)
(-2.84217e-14 0 0)
(-2.13163e-14 0 0)
(-2.54528e-21 0 0)
(4.9738e-14 0 0)
(2.13163e-14 0 0)
(4.80549e-22 0 0)
(3.55271e-14 0 0)
(-2.13163e-14 0 0)
(1.70749e-21 0 0)
(-2.13163e-14 0 0)
(-8.52651e-14 0 0)
(7.10543e-15 0 0)
(3.55271e-14 0 0)
(-5.68434e-14 0 0)
(2.13163e-14 0 0)
(4.26326e-14 0 0)
(-2.13163e-14 0 0)
(2.84217e-14 0 0)
(-1.42109e-14 0 0)
(-7.81597e-14 0 0)
(4.9738e-14 0 0)
(4.9738e-14 0 0)
(-4.26326e-14 0 0)
(3.55271e-14 0 0)
(2.13163e-14 0 0)
(-1.42109e-14 0 0)
(-7.10543e-15 0 0)
(-6.39488e-14 0 0)
(7.10543e-15 0 0)
(1.97016e-21 0 0)
(-3.55271e-14 0 0)
(3.55271e-14 0 0)
(-4.9738e-14 0 0)
(-7.10543e-15 0 0)
(5.68434e-14 0 0)
(7.10543e-15 0 0)
(7.10543e-15 0 0)
(1.42109e-14 0 0)
(7.10543e-15 0 0)
(-3.55271e-14 0 0)
(-5.68434e-14 0 0)
(-2.13163e-14 0 0)
(7.10543e-14 0 0)
(4.26326e-14 0 0)
(-1.42109e-14 0 0)
(-2.84217e-14 0 0)
(7.10542e-15 0 0)
(7.10543e-14 0 0)
(-7.10543e-15 0 0)
(2.84217e-14 0 0)
(6.39488e-14 0 0)
(-5.68434e-14 0 0)
(-2.13163e-14 0 0)
(-1.42109e-14 0 0)
(-2.84217e-14 0 0)
(4.9738e-14 0 0)
(1.42109e-14 0 0)
(-7.10542e-15 0 0)
(7.10543e-15 0 0)
(7.10543e-15 0 0)
(6.39488e-14 0 0)
(1.42109e-14 0 0)
(-5.68434e-14 0 0)
(7.10543e-15 0 0)
(1.42109e-14 0 0)
(-4.9738e-14 0 0)
(7.10543e-15 0 0)
(2.13163e-14 0 0)
(-3.55271e-14 0 0)
(-3.55271e-14 0 0)
(1.42109e-14 0 0)
(4.26326e-14 0 0)
(-1.6841e-21 0 0)
(7.10543e-15 0 0)
(-2.13163e-14 0 0)
(7.10543e-15 0 0)
(7.10543e-15 0 0)
(1.42109e-14 0 0)
(1.00388e-21 0 0)
(-7.10543e-15 0 0)
(5.68434e-14 0 0)
(-7.10543e-15 0 0)
(-7.81597e-14 0 0)
(-7.10543e-15 0 0)
(4.26326e-14 0 0)
(7.10543e-15 0 0)
(-2.13163e-14 0 0)
(-7.10543e-15 0 0)
(7.10543e-15 0 0)
(-7.10543e-15 0 0)
(2.13163e-14 0 0)
(4.26326e-14 0 0)
(4.13214e-22 0 0)
(-4.26326e-14 0 0)
(7.10543e-15 0 0)
(7.10543e-15 0 0)
(-8.52651e-14 0 0)
(-4.26326e-14 0 0)
(8.52651e-14 0 0)
(7.10543e-15 0 0)
(-2.84217e-14 0 0)
(-4.26326e-14 0 0)
(-3.55271e-14 0 0)
(-2.56317e-22 0 0)
(4.26326e-14 0 0)
(1.42109e-14 0 0)
(-7.10543e-15 0 0)
(5.68434e-14 0 0)
(-1.42109e-14 0 0)
(-7.10543e-14 0 0)
(-4.9738e-14 0 0)
(2.84217e-14 0 0)
(2.84217e-14 0 0)
(2.13163e-14 0 0)
(-2.13163e-14 0 0)
(1.42109e-14 0 0)
(1.62729e-21 0 0)
(7.10543e-15 0 0)
(2.13163e-14 0 0)
(-2.84217e-14 0 0)
(-3.55271e-14 0 0)
(-7.81597e-14 0 0)
(2.84217e-14 0 0)
(2.84217e-14 0 0)
(-1.42109e-14 0 0)
(2.84217e-14 0 0)
(2.13163e-14 0 0)
(1.91619e-21 0 0)
(1.29712e-21 0 0)
(5.68434e-14 0 0)
(1.42109e-14 0 0)
(-4.9738e-14 0 0)
(-2.84217e-14 0 0)
(-2.13163e-14 0 0)
(-3.55271e-14 0 0)
(-4.9738e-14 0 0)
(4.9738e-14 0 0)
(9.23706e-14 0 0)
(-7.10543e-15 0 0)
(-4.26326e-14 0 0)
(2.13163e-14 0 0)
(7.10543e-14 0 0)
(-2.13163e-14 0 0)
(-4.9738e-14 0 0)
(1.44984e-21 0 0)
(-7.10543e-15 0 0)
(-1.42109e-14 0 0)
(2.13163e-14 0 0)
(4.26326e-14 0 0)
(-2.13163e-14 0 0)
(-1.42109e-14 0 0)
(-7.10543e-15 0 0)
(7.10543e-15 0 0)
(2.51821e-21 0 0)
(-4.26326e-14 0 0)
(1.42109e-14 0 0)
(7.10542e-15 0 0)
(1.42109e-14 0 0)
(2.84217e-14 0 0)
(-2.13163e-14 0 0)
(-2.84217e-14 0 0)
(-7.10543e-15 0 0)
(2.13163e-14 0 0)
(2.84217e-14 0 0)
(-7.10543e-15 0 0)
(-1.42109e-14 0 0)
(-8.52651e-14 0 0)
(-4.9738e-14 0 0)
(2.84217e-14 0 0)
(4.26326e-14 0 0)
(6.39488e-14 0 0)
(-2.13163e-14 0 0)
(-2.84217e-14 0 0)
(2.13163e-14 0 0)
(1.42109e-14 0 0)
(-1.42109e-14 0 0)
(7.10543e-15 0 0)
(1.42109e-14 0 0)
(-2.84217e-14 0 0)
(1.42109e-14 0 0)
(4.9738e-14 0 0)
(1.42109e-14 0 0)
(-1.94109e-21 0 0)
(-9.90341e-22 0 0)
(-2.13163e-14 0 0)
(-2.13163e-14 0 0)
(7.10543e-15 0 0)
(7.10543e-15 0 0)
(-7.10543e-15 0 0)
(-2.84217e-14 0 0)
(2.84217e-14 0 0)
(3.55271e-14 0 0)
(1.42109e-14 0 0)
(-1.32e-22 0 0)
(-3.55271e-14 0 0)
(7.10543e-15 0 0)
(7.10543e-15 0 0)
(-2.84217e-14 0 0)
(1.42109e-14 0 0)
(1.06581e-13 0 0)
(7.10543e-15 0 0)
(-7.81597e-14 0 0)
(-4.26326e-14 0 0)
(-1.62579e-22 0 0)
(3.55271e-14 0 0)
(-4.9738e-14 0 0)
(-1.42109e-14 0 0)
(2.36349e-21 0 0)
(8.36952e-22 0 0)
(5.68434e-14 0 0)
(3.55271e-14 0 0)
(-4.75706e-22 0 0)
(7.10543e-15 0 0)
(-2.84217e-14 0 0)
(-7.10543e-15 0 0)
(2.84217e-14 0 0)
(2.84217e-14 0 0)
(2.13163e-14 0 0)
(-3.55271e-14 0 0)
(-3.55271e-14 0 0)
(1.42109e-14 0 0)
(2.84217e-14 0 0)
(-7.10543e-14 0 0)
(-3.55271e-14 0 0)
(2.13163e-14 0 0)
(-2.84217e-14 0 0)
(-3.55271e-14 0 0)
(4.26326e-14 0 0)
(3.55271e-14 0 0)
(2.13163e-14 0 0)
(-1.42109e-14 0 0)
(-6.39488e-14 0 0)
(-1.42109e-14 0 0)
(7.10543e-15 0 0)
(7.10543e-15 0 0)
(-1.60457e-21 0 0)
(1.42109e-14 0 0)
(2.13163e-14 0 0)
(7.10543e-15 0 0)
(-5.68434e-14 0 0)
(-7.10543e-15 0 0)
(4.26326e-14 0 0)
(2.78589e-21 0 0)
(-1.42109e-14 0 0)
(-3.55271e-14 0 0)
(7.10543e-15 0 0)
(5.68434e-14 0 0)
(-5.68434e-14 0 0)
(-1.06581e-13 0 0)
(4.26326e-14 0 0)
(2.13163e-14 0 0)
(-4.9738e-14 0 0)
(4.9738e-14 0 0)
(8.52651e-14 0 0)
(3.55271e-14 0 0)
(-5.68434e-14 0 0)
(-4.26326e-14 0 0)
(2.13163e-14 0 0)
(-7.10543e-15 0 0)
(-2.0532e-21 0 0)
(7.10542e-15 0 0)
(4.26326e-14 0 0)
(2.84217e-14 0 0)
(-3.55271e-14 0 0)
(-4.26326e-14 0 0)
(-4.26326e-14 0 0)
(-4.9738e-14 0 0)
(7.10543e-15 0 0)
(2.13163e-14 0 0)
(-4.9738e-14 0 0)
(7.10543e-15 0 0)
(4.9738e-14 0 0)
(3.55271e-14 0 0)
(7.10543e-15 0 0)
(-2.84217e-14 0 0)
(2.13163e-14 0 0)
(4.50141e-22 0 0)
(-4.9738e-14 0 0)
(-7.10543e-15 0 0)
(1.42109e-14 0 0)
(3.55271e-14 0 0)
(-7.10543e-15 0 0)
(-7.10543e-14 0 0)
(1.42109e-14 0 0)
(5.68434e-14 0 0)
(-7.10543e-14 0 0)
(-4.9738e-14 0 0)
(2.84217e-14 0 0)
(4.9738e-14 0 0)
(3.55271e-14 0 0)
(-1.42109e-14 0 0)
(-7.10543e-15 0 0)
(-4.03121e-21 0 0)
(2.13163e-14 0 0)
(1.42109e-14 0 0)
(-2.13163e-14 0 0)
(7.10543e-15 0 0)
(4.26326e-14 0 0)
(-5.68434e-14 0 0)
(-2.84217e-14 0 0)
(5.68434e-14 0 0)
(1.42277e-21 0 0)
(-6.39488e-14 0 0)
(-1.42109e-14 0 0)
(4.26326e-14 0 0)
(7.10543e-15 0 0)
(-7.10543e-15 0 0)
(1.42109e-14 0 0)
(7.10543e-15 0 0)
(-2.13163e-14 0 0)
(-6.39488e-14 0 0)
(-7.10543e-15 0 0)
(4.9738e-14 0 0)
(1.42109e-14 0 0)
(-7.10543e-15 0 0)
(1.42109e-14 0 0)
(1.42109e-14 0 0)
(-2.84217e-14 0 0)
(1.51083e-21 0 0)
(2.84217e-14 0 0)
(5.68434e-14 0 0)
(2.13163e-14 0 0)
(-7.81597e-14 0 0)
(-4.9738e-14 0 0)
(5.68434e-14 0 0)
(2.84217e-14 0 0)
(2.84217e-14 0 0)
(-2.84217e-14 0 0)
(-4.9738e-14 0 0)
(-1.42109e-14 0 0)
(-3.55271e-14 0 0)
(2.84217e-14 0 0)
(2.84217e-14 0 0)
(2.13163e-14 0 0)
(7.10543e-15 0 0)
(-2.84217e-14 0 0)
(-1.42109e-14 0 0)
(-6.39488e-14 0 0)
(7.10543e-14 0 0)
(1.13687e-13 0 0)
(-7.81597e-14 0 0)
(-6.39488e-14 0 0)
(-7.10543e-15 0 0)
(8.52651e-14 0 0)
(3.55271e-14 0 0)
(-2.13163e-14 0 0)
(7.10543e-14 0 0)
(2.13163e-14 0 0)
(-8.52651e-14 0 0)
(-2.84217e-14 0 0)
(-7.10543e-15 0 0)
(-1.42109e-14 0 0)
(3.55271e-14 0 0)
(-2.84217e-14 0 0)
(-2.13163e-14 0 0)
(1.42109e-14 0 0)
(2.13163e-14 0 0)
(2.13163e-14 0 0)
(2.13163e-14 0 0)
(2.84217e-14 0 0)
(-2.4203e-21 0 0)
(-2.84217e-14 0 0)
(-5.68434e-14 0 0)
(-3.55271e-14 0 0)
(4.9738e-14 0 0)
(5.68434e-14 0 0)
(-2.84217e-14 0 0)
(-1.42109e-14 0 0)
(2.13163e-14 0 0)
(2.84217e-14 0 0)
(7.10543e-15 0 0)
(-2.00841e-22 0 0)
(-7.10543e-15 0 0)
(-2.84217e-14 0 0)
(-7.10543e-15 0 0)
(-1.15225e-21 0 0)
(7.10543e-15 0 0)
(-2.84217e-14 0 0)
(-7.10543e-15 0 0)
(-9.53584e-22 0 0)
(1.42109e-14 0 0)
(2.13163e-14 0 0)
(-2.13163e-14 0 0)
(-7.10543e-15 0 0)
(2.13163e-14 0 0)
(-2.13163e-14 0 0)
(-9.23706e-14 0 0)
(-7.10543e-15 0 0)
(5.68434e-14 0 0)
(5.68434e-14 0 0)
(4.26326e-14 0 0)
(-6.39488e-14 0 0)
(-7.10543e-14 0 0)
(1.42109e-14 0 0)
(1.42109e-14 0 0)
(1.42109e-14 0 0)
(2.13163e-14 0 0)
(7.10543e-15 0 0)
(-1.42109e-14 0 0)
(2.13163e-14 0 0)
(5.68434e-14 0 0)
(-2.13163e-14 0 0)
(-6.39488e-14 0 0)
(7.10543e-15 0 0)
(-3.55271e-14 0 0)
(2.13163e-14 0 0)
(9.23706e-14 0 0)
(-7.10543e-15 0 0)
(-2.13163e-14 0 0)
(-3.55271e-14 0 0)
(-7.10543e-15 0 0)
(-2.69002e-23 0 0)
(-7.10543e-15 0 0)
(-3.55271e-14 0 0)
(-7.10543e-15 0 0)
(2.84217e-14 0 0)
(2.84217e-14 0 0)
(5.68434e-14 0 0)
(-5.44546e-22 0 0)
(-2.84217e-14 0 0)
(-1.42109e-14 0 0)
(1.5257e-21 0 0)
(4.9738e-14 0 0)
(-2.17317e-24 0 0)
(-2.84217e-14 0 0)
(-7.10543e-15 0 0)
(1.42109e-14 0 0)
(2.84217e-14 0 0)
(7.10543e-15 0 0)
(-2.13163e-14 0 0)
(1.99639e-21 0 0)
(4.9738e-14 0 0)
(-7.10543e-15 0 0)
(-4.26326e-14 0 0)
(-7.10543e-14 0 0)
(-7.10543e-15 0 0)
(3.55271e-14 0 0)
(-7.10543e-15 0 0)
(-2.13163e-14 0 0)
(2.13163e-14 0 0)
(3.55271e-14 0 0)
(-1.00087e-22 0 0)
(6.75055e-23 0 0)
(1.42109e-14 0 0)
(4.26326e-14 0 0)
(7.10543e-15 0 0)
(-2.13163e-14 0 0)
(-2.84217e-14 0 0)
(7.10543e-15 0 0)
(-1.42109e-14 0 0)
(-5.68434e-14 0 0)
(-1.42109e-14 0 0)
(7.10543e-15 0 0)
(3.55271e-14 0 0)
(-7.10543e-15 0 0)
(-4.26326e-14 0 0)
(-2.13163e-14 0 0)
(9.23706e-14 0 0)
(4.9738e-14 0 0)
(-3.55271e-14 0 0)
(4.26326e-14 0 0)
(-1.42109e-14 0 0)
(-6.39488e-14 0 0)
(-1.42109e-14 0 0)
(1.42109e-14 0 0)
(6.38952e-22 0 0)
(1.02877e-21 0 0)
(-7.10543e-15 0 0)
(2.84217e-14 0 0)
(-7.10543e-15 0 0)
(-3.55271e-14 0 0)
(3.55271e-14 0 0)
(-2.13163e-14 0 0)
(-7.81597e-14 0 0)
(3.55271e-14 0 0)
(7.81597e-14 0 0)
(1.58602e-21 0 0)
(-3.55271e-14 0 0)
(-2.13163e-14 0 0)
(7.10543e-15 0 0)
(-7.10543e-15 0 0)
(7.10543e-15 0 0)
(1.42109e-14 0 0)
(2.84217e-14 0 0)
(-1.50799e-21 0 0)
(-4.9738e-14 0 0)
(-1.42109e-14 0 0)
(3.55271e-14 0 0)
(-1.42109e-14 0 0)
(-4.9738e-14 0 0)
(2.84217e-14 0 0)
(-1.42109e-14 0 0)
(-1.42109e-14 0 0)
(7.10543e-14 0 0)
(-1.42109e-14 0 0)
(-5.68434e-14 0 0)
(4.9738e-14 0 0)
(2.84217e-14 0 0)
(-3.55271e-14 0 0)
(-2.13163e-14 0 0)
(-6.39488e-14 0 0)
(-3.55271e-14 0 0)
(-2.13163e-14 0 0)
(1.42109e-14 0 0)
(7.10543e-14 0 0)
(-3.55271e-14 0 0)
(2.84217e-14 0 0)
(3.55271e-14 0 0)
(-2.84217e-14 0 0)
(1.13621e-23 0 0)
(-5.68434e-14 0 0)
(2.84217e-14 0 0)
(4.9738e-14 0 0)
(7.10543e-15 0 0)
(-1.42109e-14 0 0)
(-7.10543e-15 0 0)
(-7.10543e-15 0 0)
(-2.84217e-14 0 0)
(7.81597e-14 0 0)
(-2.13163e-14 0 0)
(-7.81597e-14 0 0)
(2.13163e-14 0 0)
(-3.55271e-14 0 0)
(-8.52651e-14 0 0)
(3.55271e-14 0 0)
(4.9738e-14 0 0)
(-3.55271e-14 0 0)
(1.42109e-14 0 0)
(-5.78633e-22 0 0)
(-4.9738e-14 0 0)
(1.42109e-14 0 0)
(2.84217e-14 0 0)
(2.84217e-14 0 0)
(-7.10543e-15 0 0)
(-4.26326e-14 0 0)
(2.84217e-14 0 0)
(-1.42109e-14 0 0)
(3.57071e-22 0 0)
(3.55271e-14 0 0)
(2.13163e-14 0 0)
(-3.55271e-14 0 0)
(-4.26326e-14 0 0)
(1.42109e-14 0 0)
(7.10543e-15 0 0)
(2.13163e-14 0 0)
(3.55271e-14 0 0)
(-1.02259e-22 0 0)
(-4.26326e-14 0 0)
(7.10543e-15 0 0)
(5.68434e-14 0 0)
(1.42109e-14 0 0)
(-1.42109e-14 0 0)
(-1.42109e-14 0 0)
(7.10543e-15 0 0)
(-2.13163e-14 0 0)
(-6.39488e-14 0 0)
(-7.10543e-15 0 0)
(4.26326e-14 0 0)
(3.55271e-14 0 0)
(-1.42109e-14 0 0)
(-3.55271e-14 0 0)
(-7.10543e-15 0 0)
(2.84217e-14 0 0)
(7.10543e-15 0 0)
(-7.10543e-15 0 0)
(3.82635e-22 0 0)
(-1.42109e-14 0 0)
(-3.55271e-14 0 0)
(-1.05434e-21 0 0)
(5.68434e-14 0 0)
(2.84217e-14 0 0)
(-4.26326e-14 0 0)
(-7.10543e-14 0 0)
(7.10543e-15 0 0)
(5.68434e-14 0 0)
(1.42109e-14 0 0)
(-2.92576e-22 0 0)
(-2.13163e-14 0 0)
(2.84217e-14 0 0)
(7.10543e-15 0 0)
(-6.39488e-14 0 0)
(-7.10543e-14 0 0)
(7.10543e-15 0 0)
(1.06581e-13 0 0)
(4.26326e-14 0 0)
(-4.26326e-14 0 0)
(-1.42109e-14 0 0)
(-7.10543e-15 0 0)
(-4.26326e-14 0 0)
(2.13163e-14 0 0)
(-4.9738e-14 0 0)
(-1.42108e-14 0 0)
(1.06581e-13 0 0)
(1.06581e-13 0 0)
(1.13687e-13 0 0)
(2.06058e-13 0 0)
(4.26326e-13 0 0)
(7.81598e-13 0 0)
(1.39266e-12 0 0)
(2.47269e-12 0 0)
(4.56169e-12 0 0)
(8.13572e-12 0 0)
(1.44382e-11 0 0)
(2.57572e-11 0 0)
(4.53966e-11 0 0)
(7.94387e-11 0 0)
(1.38044e-10 0 0)
(2.37833e-10 0 0)
(4.068e-10 0 0)
(6.90776e-10 0 0)
(1.16384e-09 0 0)
(1.94574e-09 0 0)
(3.22725e-09 0 0)
(5.3098e-09 0 0)
(8.66539e-09 0 0)
(1.4025e-08 0 0)
(2.25096e-08 0 0)
(3.58201e-08 0 0)
(5.65091e-08 0 0)
(8.83656e-08 0 0)
(1.36949e-07 0 0)
(2.10319e-07 0 0)
(3.20017e-07 0 0)
(4.82362e-07 0 0)
(7.20119e-07 0 0)
(1.06461e-06 0 0)
(1.5583e-06 0 0)
(2.25788e-06 0 0)
(3.23784e-06 0 0)
(4.59432e-06 0 0)
(6.4492e-06 0 0)
(8.95381e-06 0 0)
(1.2292e-05 0 0)
(1.66819e-05 0 0)
(2.23748e-05 0 0)
(2.96516e-05 0 0)
(3.8814e-05 0 0)
(5.01711e-05 0 0)
(6.40196e-05 0 0)
(8.06179e-05 0 0)
(0.000100154 0 0)
(0.000122713 0 0)
(0.000148233 0 0)
(0.00017648 0 0)
(0.000207011 0 0)
(0.000239165 0 0)
(0.00027206 0 0)
(0.000304615 0 0)
(0.000335596 0 0)
(0.000363678 0 0)
(0.000387533 0 0)
(0.000405917 0 0)
(0.00041777 0 0)
(0.0004223 0 0)
(0.000419053 0 0)
(0.000407952 0 0)
(0.000389307 0 0)
(0.000363794 0 0)
(0.000332404 0 0)
(0.000296363 0 0)
(0.000257047 0 0)
(0.000215885 0 0)
(0.000174267 0 0)
(0.000133465 0 0)
(9.45726e-05 0 0)
(5.84613e-05 0 0)
(2.57626e-05 0 0)
(-3.13362e-06 0 0)
(-2.80615e-05 0 0)
(-4.905e-05 0 0)
(-6.62847e-05 0 0)
(-8.00687e-05 0 0)
(-9.07819e-05 0 0)
(-9.88415e-05 0 0)
(-0.000104669 0 0)
(-0.000108668 0 0)
(-0.000111202 0 0)
(-0.000112592 0 0)
(-0.000113107 0 0)
(-0.000112967 0 0)
(-0.000112347 0 0)
(-0.000111382 0 0)
(-0.000110174 0 0)
(-0.000108799 0 0)
(-0.000107311 0 0)
(-0.000105752 0 0)
(-0.000104149 0 0)
(-0.000102524 0 0)
(-0.000100892 0 0)
(-9.92634e-05 0 0)
(-9.76481e-05 0 0)
(-9.60529e-05 0 0)
(-9.44836e-05 0 0)
(-9.29447e-05 0 0)
(-9.14408e-05 0 0)
(-8.9974e-05 0 0)
(-8.85505e-05 0 0)
(-8.71663e-05 0 0)
(-8.58289e-05 0 0)
(-8.45654e-05 0 0)
(-8.32347e-05 0 0)
(-8.23956e-05 0 0)
(-8.10558e-05 0 0)
(-8.06674e-05 0 0)
(-7.11912e-05 0 0)
(-6.49555e-05 0 0)
(-7.11636e-05 0 0)
(-7.31016e-05 0 0)
(-7.28558e-05 0 0)
(-7.23679e-05 0 0)
(-7.16884e-05 0 0)
(-7.09436e-05 0 0)
(-7.0198e-05 0 0)
(-6.94777e-05 0 0)
(-6.87943e-05 0 0)
(-6.81529e-05 0 0)
(-6.75517e-05 0 0)
(-6.69845e-05 0 0)
(-6.64421e-05 0 0)
(-6.59137e-05 0 0)
(-6.53874e-05 0 0)
(-6.48522e-05 0 0)
(-6.42985e-05 0 0)
(-6.37189e-05 0 0)
(-6.3109e-05 0 0)
(-6.2467e-05 0 0)
(-6.17934e-05 0 0)
(-6.10906e-05 0 0)
(-6.03625e-05 0 0)
(-5.96138e-05 0 0)
(-5.88501e-05 0 0)
(-5.8077e-05 0 0)
(-5.72999e-05 0 0)
(-5.65232e-05 0 0)
(-5.57501e-05 0 0)
(-5.49828e-05 0 0)
(-5.42225e-05 0 0)
(-5.34702e-05 0 0)
(-5.27265e-05 0 0)
(-5.19929e-05 0 0)
(-5.12713e-05 0 0)
(-5.05644e-05 0 0)
(-4.98754e-05 0 0)
(-4.9208e-05 0 0)
(-4.85659e-05 0 0)
(-4.79516e-05 0 0)
(-4.73659e-05 0 0)
(-4.68078e-05 0 0)
(-4.62721e-05 0 0)
(-4.57541e-05 0 0)
(-4.52417e-05 0 0)
(-4.47356e-05 0 0)
(-4.42108e-05 0 0)
(-4.36998e-05 0 0)
(-4.31281e-05 0 0)
(-4.26347e-05 0 0)
(-4.1968e-05 0 0)
(-4.15857e-05 0 0)
(-4.07147e-05 0 0)
(-4.06411e-05 0 0)
(-3.93468e-05 0 0)
(-3.98549e-05 0 0)
(-3.78984e-05 0 0)
(-3.90643e-05 0 0)
(-3.66826e-05 0 0)
(-3.7705e-05 0 0)
(-3.64359e-05 0 0)
(-3.51729e-05 0 0)
(-3.75487e-05 0 0)
(-3.20098e-05 0 0)
(-2.67906e-05 0 0)
(-4.18413e-05 0 0)
(-4.69056e-05 0 0)
(-5.02325e-05 0 0)
(-7.5119e-06 0 0)
(-2.62653e-05 0 0)
(-3.11067e-05 0 0)
(-5.09459e-05 0 0)
(-1.06753e-05 0 0)
(-2.40287e-05 0 0)
(-3.64858e-05 0 0)
(-3.05251e-05 0 0)
(-2.61404e-05 0 0)
(-2.89326e-05 0 0)
(-2.73656e-05 0 0)
(-2.58776e-05 0 0)
(-2.65456e-05 0 0)
(-2.75675e-05 0 0)
(-2.41392e-05 0 0)
(-2.53076e-05 0 0)
(-2.4424e-05 0 0)
(-2.51746e-05 0 0)
(-2.22577e-05 0 0)
(-1.77208e-05 0 0)
(-2.73774e-05 0 0)
(-2.21833e-05 0 0)
(-2.21422e-05 0 0)
(-2.22828e-05 0 0)
(-2.56563e-05 0 0)
(-4.45252e-05 0 0)
(-0.000127787 0 0)
(-0.000374199 0 0)
(-0.00135433 0 0)
(-0.00241878 0 0)
(0.00302839 0 0)
)
;

boundaryField
{
    sideLeft
    {
        type            symmetryPlane;
    }
    sideRight
    {
        type            calculated;
        value           uniform (-0.388029 0 0);
    }
    topbottom
    {
        type            empty;
    }
    frontback
    {
        type            empty;
    }
}


// ************************************************************************* //
