/*--------------------------------*- C++ -*----------------------------------*\
| =========                 |                                                 |
| \\      /  F ield         | OpenFOAM: The Open Source CFD Toolbox           |
|  \\    /   O peration     | Version:  2.4.0                                 |
|   \\  /    A nd           | Web:      www.OpenFOAM.org                      |
|    \\/     M anipulation  |                                                 |
\*---------------------------------------------------------------------------*/
FoamFile
{
    version     2.0;
    format      ascii;
    class       volScalarField;
    location    "0.16";
    object      p;
}
// * * * * * * * * * * * * * * * * * * * * * * * * * * * * * * * * * * * * * //

dimensions      [1 -1 -2 0 0 0 0];

internalField   nonuniform List<scalar> 
1000
(
5e+06
5e+06
5e+06
5e+06
5e+06
5e+06
5e+06
5e+06
5e+06
5e+06
5e+06
5e+06
5e+06
5e+06
5e+06
5e+06
5e+06
5e+06
5e+06
5e+06
5e+06
5e+06
5e+06
5e+06
5e+06
5e+06
5e+06
5e+06
5e+06
5e+06
5e+06
5e+06
5e+06
5e+06
5e+06
5e+06
5e+06
5e+06
5e+06
5e+06
5e+06
5e+06
5e+06
5e+06
5e+06
5e+06
5e+06
5e+06
5e+06
5e+06
5e+06
5e+06
5e+06
5e+06
5e+06
5e+06
5e+06
5e+06
5e+06
5e+06
5e+06
5e+06
5e+06
5e+06
5e+06
5e+06
5e+06
5e+06
5e+06
5e+06
5e+06
5e+06
5e+06
5e+06
5e+06
5e+06
5e+06
5e+06
5e+06
5e+06
5e+06
5e+06
5e+06
5e+06
5e+06
5e+06
5e+06
5e+06
5e+06
5e+06
5e+06
5e+06
5e+06
5e+06
5e+06
5e+06
5e+06
5e+06
5e+06
5e+06
5e+06
5e+06
5e+06
5e+06
5e+06
5e+06
5e+06
5e+06
5e+06
5e+06
5e+06
5e+06
5e+06
5e+06
5e+06
5e+06
5e+06
5e+06
5e+06
5e+06
5e+06
5e+06
5e+06
5e+06
5e+06
5e+06
5e+06
5e+06
5e+06
5e+06
5e+06
5e+06
5e+06
5e+06
5e+06
5e+06
5e+06
5e+06
5e+06
5e+06
5e+06
5e+06
5e+06
5e+06
5e+06
5e+06
5e+06
5e+06
5e+06
5e+06
5e+06
5e+06
5e+06
5e+06
5e+06
5e+06
5e+06
5e+06
5e+06
5e+06
5e+06
5e+06
5e+06
5e+06
5e+06
5e+06
5e+06
5e+06
5e+06
5e+06
5e+06
5e+06
5e+06
5e+06
5e+06
5e+06
5e+06
5e+06
5e+06
5e+06
5e+06
5e+06
5e+06
5e+06
5e+06
5e+06
5e+06
5e+06
5e+06
5e+06
5e+06
5e+06
5e+06
5e+06
5e+06
5e+06
5e+06
5e+06
5e+06
5e+06
5e+06
5e+06
5e+06
5e+06
5e+06
5e+06
5e+06
5e+06
5e+06
5e+06
5e+06
5e+06
5e+06
5e+06
5e+06
5e+06
5e+06
5e+06
5e+06
5e+06
5e+06
5e+06
5e+06
5e+06
5e+06
5e+06
5e+06
5e+06
5e+06
5e+06
5e+06
5e+06
5e+06
5e+06
5e+06
5e+06
5e+06
5e+06
5e+06
5e+06
5e+06
5e+06
5e+06
5e+06
5e+06
5e+06
5e+06
5e+06
5e+06
5e+06
5e+06
5e+06
5e+06
5e+06
5e+06
5e+06
5e+06
5e+06
5e+06
5e+06
5e+06
5e+06
5e+06
5e+06
5e+06
5e+06
5e+06
5e+06
5e+06
5e+06
5e+06
5e+06
5e+06
5e+06
5e+06
5e+06
5e+06
5e+06
5e+06
5e+06
5e+06
5e+06
5e+06
5e+06
5e+06
5e+06
5e+06
5e+06
5e+06
5e+06
5e+06
5e+06
5e+06
5e+06
5e+06
5e+06
5e+06
5e+06
5e+06
5e+06
5e+06
5e+06
5e+06
5e+06
5e+06
5e+06
5e+06
5e+06
5e+06
5e+06
5e+06
5e+06
5e+06
5e+06
5e+06
5e+06
5e+06
5e+06
5e+06
5e+06
5e+06
5e+06
5e+06
5e+06
5e+06
5e+06
5e+06
5e+06
5e+06
5e+06
5e+06
5e+06
5e+06
5e+06
5e+06
5e+06
5e+06
5e+06
5e+06
5e+06
5e+06
5e+06
5e+06
5e+06
5e+06
5e+06
5e+06
5e+06
5e+06
5e+06
5e+06
5e+06
5e+06
5e+06
5e+06
5e+06
5e+06
5e+06
5e+06
5e+06
5e+06
5e+06
5e+06
5e+06
5e+06
5e+06
5e+06
5e+06
5e+06
5e+06
5e+06
5e+06
5e+06
5e+06
5e+06
5e+06
5e+06
5e+06
5e+06
5e+06
5e+06
5e+06
5e+06
5e+06
5e+06
5e+06
5e+06
5e+06
5e+06
5e+06
5e+06
5e+06
5e+06
5e+06
5e+06
5e+06
5e+06
5e+06
5e+06
5e+06
5e+06
5e+06
5e+06
5e+06
5e+06
5e+06
5e+06
5e+06
5e+06
5e+06
5e+06
5e+06
5e+06
5e+06
5e+06
5e+06
5e+06
5e+06
5e+06
5e+06
5e+06
5e+06
5e+06
5e+06
5e+06
5e+06
5e+06
5e+06
5e+06
5e+06
5e+06
5e+06
5e+06
5e+06
5e+06
5e+06
5e+06
5e+06
5e+06
5e+06
5e+06
5e+06
5e+06
5e+06
5e+06
5e+06
5e+06
5e+06
5e+06
5e+06
5e+06
5e+06
5e+06
5e+06
5e+06
5e+06
5e+06
5e+06
5e+06
5e+06
5e+06
5e+06
5e+06
5e+06
4.99999e+06
4.99999e+06
4.99999e+06
4.99999e+06
4.99999e+06
4.99998e+06
4.99998e+06
4.99997e+06
4.99996e+06
4.99995e+06
4.99994e+06
4.99992e+06
4.9999e+06
4.99987e+06
4.99984e+06
4.9998e+06
4.99975e+06
4.99969e+06
4.99962e+06
4.99953e+06
4.99942e+06
4.9993e+06
4.99915e+06
4.99897e+06
4.99876e+06
4.99851e+06
4.99822e+06
4.99789e+06
4.9975e+06
4.99705e+06
4.99653e+06
4.99594e+06
4.99526e+06
4.99449e+06
4.99363e+06
4.99266e+06
4.99157e+06
4.99035e+06
4.989e+06
4.98751e+06
4.98587e+06
4.98407e+06
4.98211e+06
4.97997e+06
4.97766e+06
4.97516e+06
4.97247e+06
4.9696e+06
4.96653e+06
4.96326e+06
4.9598e+06
4.95614e+06
4.95228e+06
4.94823e+06
4.94399e+06
4.93956e+06
4.93495e+06
4.93015e+06
4.92519e+06
4.92006e+06
4.91476e+06
4.90932e+06
4.90372e+06
4.89799e+06
4.89213e+06
4.88614e+06
4.88003e+06
4.87382e+06
4.8675e+06
4.86109e+06
4.8546e+06
4.84802e+06
4.84137e+06
4.83466e+06
4.82788e+06
4.82106e+06
4.81418e+06
4.80727e+06
4.80031e+06
4.79333e+06
4.78631e+06
4.77927e+06
4.77222e+06
4.76514e+06
4.75806e+06
4.75096e+06
4.74386e+06
4.73675e+06
4.72964e+06
4.72253e+06
4.71542e+06
4.70832e+06
4.70122e+06
4.69412e+06
4.68703e+06
4.67995e+06
4.67288e+06
4.66582e+06
4.65877e+06
4.65173e+06
4.6447e+06
4.63768e+06
4.63068e+06
4.62368e+06
4.6167e+06
4.60973e+06
4.60277e+06
4.59583e+06
4.5889e+06
4.58198e+06
4.57507e+06
4.56817e+06
4.56129e+06
4.55441e+06
4.54755e+06
4.5407e+06
4.53386e+06
4.52704e+06
4.52022e+06
4.51342e+06
4.50662e+06
4.49984e+06
4.49307e+06
4.4863e+06
4.47955e+06
4.47281e+06
4.46608e+06
4.45935e+06
4.45264e+06
4.44594e+06
4.43924e+06
4.43256e+06
4.42588e+06
4.41921e+06
4.41255e+06
4.4059e+06
4.39926e+06
4.39262e+06
4.386e+06
4.37938e+06
4.37277e+06
4.36616e+06
4.35957e+06
4.35298e+06
4.3464e+06
4.33983e+06
4.33326e+06
4.3267e+06
4.32015e+06
4.31361e+06
4.30707e+06
4.30054e+06
4.29401e+06
4.2875e+06
4.28099e+06
4.27448e+06
4.26798e+06
4.26149e+06
4.25501e+06
4.24853e+06
4.24206e+06
4.23559e+06
4.22913e+06
4.22268e+06
4.21623e+06
4.20979e+06
4.20336e+06
4.19693e+06
4.1905e+06
4.18409e+06
4.17768e+06
4.17127e+06
4.16487e+06
4.15848e+06
4.15209e+06
4.14571e+06
4.13933e+06
4.13296e+06
4.12659e+06
4.12023e+06
4.11388e+06
4.10753e+06
4.10119e+06
4.09485e+06
4.08851e+06
4.08218e+06
4.07586e+06
4.06954e+06
4.06323e+06
4.05692e+06
4.05062e+06
4.04432e+06
4.03802e+06
4.03173e+06
4.02545e+06
4.01916e+06
4.01289e+06
4.00661e+06
4.00035e+06
3.99408e+06
3.98782e+06
3.98156e+06
3.97531e+06
3.96906e+06
3.96282e+06
3.95657e+06
3.95034e+06
3.9441e+06
3.93787e+06
3.93164e+06
3.92542e+06
3.9192e+06
3.91298e+06
3.90676e+06
3.90055e+06
3.89434e+06
3.88814e+06
3.88193e+06
3.87573e+06
3.86953e+06
3.86334e+06
3.85715e+06
3.85096e+06
3.84477e+06
3.83858e+06
3.8324e+06
3.82622e+06
3.82004e+06
3.81386e+06
3.80769e+06
3.80152e+06
3.79535e+06
3.78918e+06
3.78301e+06
3.77685e+06
3.77068e+06
3.76452e+06
3.75836e+06
3.75221e+06
3.74605e+06
3.73989e+06
3.73374e+06
3.72759e+06
3.72144e+06
3.71529e+06
3.70914e+06
3.70299e+06
3.69684e+06
3.69069e+06
3.68455e+06
3.6784e+06
3.67226e+06
3.66611e+06
3.65997e+06
3.65383e+06
3.64769e+06
3.64154e+06
3.6354e+06
3.62926e+06
3.62312e+06
3.61697e+06
3.61083e+06
3.60469e+06
3.59855e+06
3.5924e+06
3.58626e+06
3.58011e+06
3.57397e+06
3.56782e+06
3.56167e+06
3.55553e+06
3.54938e+06
3.54323e+06
3.53707e+06
3.53092e+06
3.52477e+06
3.51861e+06
3.51245e+06
3.50629e+06
3.50013e+06
3.49397e+06
3.4878e+06
3.48164e+06
3.47547e+06
3.4693e+06
3.46312e+06
3.45695e+06
3.45077e+06
3.44458e+06
3.4384e+06
3.43221e+06
3.42602e+06
3.41983e+06
3.41363e+06
3.40743e+06
3.40123e+06
3.39502e+06
3.3888e+06
3.38259e+06
3.37637e+06
3.37014e+06
3.36391e+06
3.35768e+06
3.35144e+06
3.3452e+06
3.33895e+06
3.3327e+06
3.32644e+06
3.32018e+06
3.31391e+06
3.30764e+06
3.30136e+06
3.29507e+06
3.28878e+06
3.28248e+06
3.27617e+06
3.26986e+06
3.26354e+06
3.25721e+06
3.25088e+06
3.24453e+06
3.23818e+06
3.23182e+06
3.22546e+06
3.21908e+06
3.2127e+06
3.20631e+06
3.1999e+06
3.1935e+06
3.18707e+06
3.18066e+06
3.17421e+06
3.16778e+06
3.16132e+06
3.15484e+06
3.14835e+06
3.14186e+06
3.13536e+06
3.12884e+06
3.12231e+06
3.11577e+06
3.10922e+06
3.10265e+06
3.09607e+06
3.08947e+06
3.08286e+06
3.07624e+06
3.0696e+06
3.06295e+06
3.05628e+06
3.04959e+06
3.04289e+06
3.03617e+06
3.02944e+06
3.02268e+06
3.01591e+06
3.00913e+06
3.00232e+06
2.99549e+06
2.98864e+06
2.98177e+06
2.97487e+06
2.96796e+06
2.96102e+06
2.95407e+06
2.94708e+06
2.94008e+06
2.93306e+06
2.926e+06
2.91892e+06
2.91181e+06
2.90468e+06
2.89751e+06
2.89032e+06
2.8831e+06
2.87585e+06
2.86856e+06
2.86125e+06
2.85389e+06
2.84651e+06
2.83909e+06
2.83163e+06
2.82413e+06
2.81659e+06
2.80902e+06
2.8014e+06
2.79374e+06
2.78603e+06
2.77828e+06
2.77048e+06
2.76263e+06
2.75473e+06
2.74678e+06
2.73877e+06
2.73071e+06
2.72259e+06
2.71441e+06
2.70616e+06
2.69785e+06
2.68948e+06
2.68103e+06
2.67251e+06
2.66391e+06
2.65523e+06
2.64647e+06
2.63762e+06
2.62869e+06
2.61965e+06
2.61051e+06
2.60127e+06
2.59192e+06
2.58245e+06
2.57286e+06
2.56314e+06
2.55328e+06
2.54328e+06
2.53313e+06
2.5228e+06
2.51231e+06
2.50163e+06
2.49076e+06
2.47967e+06
2.46836e+06
2.45681e+06
2.44501e+06
2.43295e+06
2.4206e+06
2.40797e+06
2.39503e+06
2.3818e+06
2.36826e+06
2.35444e+06
2.34034e+06
2.326e+06
2.31148e+06
2.29689e+06
2.28235e+06
2.26813e+06
2.25456e+06
2.24178e+06
2.22977e+06
2.21845e+06
2.20769e+06
2.19732e+06
2.1872e+06
2.17717e+06
2.16712e+06
2.15697e+06
2.14668e+06
2.13622e+06
2.1256e+06
2.11483e+06
2.10394e+06
2.09297e+06
2.08194e+06
2.07089e+06
2.05983e+06
2.04878e+06
2.03775e+06
2.02674e+06
2.01575e+06
2.00478e+06
1.99382e+06
1.98286e+06
1.97188e+06
1.9609e+06
1.94991e+06
1.9389e+06
1.92789e+06
1.91686e+06
1.90584e+06
1.89481e+06
1.88378e+06
1.87275e+06
1.86174e+06
1.85073e+06
1.83974e+06
1.82876e+06
1.81779e+06
1.80685e+06
1.7959e+06
1.78497e+06
1.77405e+06
1.76314e+06
1.75225e+06
1.74136e+06
1.73048e+06
1.71961e+06
1.70877e+06
1.69793e+06
1.68711e+06
1.67629e+06
1.66549e+06
1.65471e+06
1.64395e+06
1.6332e+06
1.62248e+06
1.61178e+06
1.60108e+06
1.59041e+06
1.57976e+06
1.56915e+06
1.5586e+06
1.54808e+06
1.53759e+06
1.52716e+06
1.51676e+06
1.50643e+06
1.49614e+06
1.48591e+06
1.47577e+06
1.46569e+06
1.45568e+06
1.44576e+06
1.436e+06
1.4263e+06
1.41669e+06
1.40727e+06
1.39799e+06
1.38875e+06
1.37969e+06
1.37089e+06
1.36218e+06
1.35374e+06
1.34571e+06
1.33818e+06
1.33103e+06
1.32399e+06
1.31719e+06
1.31057e+06
1.30324e+06
1.29499e+06
1.29272e+06
1.30364e+06
1.31698e+06
1.32547e+06
)
;

boundaryField
{
    sideLeft
    {
        type            symmetryPlane;
    }
    sideRight
    {
        type            myWaveTransmissive;
        phi             phi.air;
        rho             rho.air;
        psi             thermo:psi.air;
        gamma           1.4;
        fieldInf        100000;
        lInf            10;
        value           uniform 1.32423e+06;
    }
    topbottom
    {
        type            empty;
    }
    frontback
    {
        type            empty;
    }
}


// ************************************************************************* //
