/*--------------------------------*- C++ -*----------------------------------*\
| =========                 |                                                 |
| \\      /  F ield         | OpenFOAM: The Open Source CFD Toolbox           |
|  \\    /   O peration     | Version:  2.4.0                                 |
|   \\  /    A nd           | Web:      www.OpenFOAM.org                      |
|    \\/     M anipulation  |                                                 |
\*---------------------------------------------------------------------------*/
FoamFile
{
    version     2.0;
    format      ascii;
    class       surfaceScalarField;
    location    "0.16";
    object      phi;
}
// * * * * * * * * * * * * * * * * * * * * * * * * * * * * * * * * * * * * * //

dimensions      [0 3 -1 0 0 0 0];

internalField   nonuniform List<scalar> 
999
(
-2.65099e-13
6.96366e-14
9.66338e-13
-2.0555e-14
-9.45862e-13
1.45108e-13
-3.97903e-13
-3.28393e-13
-5.11957e-13
-5.82645e-13
-9.94749e-14
1.18013e-12
2.32204e-12
2.96288e-12
3.28621e-12
2.90831e-12
8.98913e-13
1.85206e-12
1.60969e-12
1.76551e-12
2.1917e-12
2.56426e-12
2.44907e-12
1.63701e-12
1.93861e-12
9.70613e-13
1.72184e-12
1.93108e-12
2.4296e-12
1.61792e-12
3.67229e-13
1.05792e-12
1.52541e-12
1.28721e-12
-5.68422e-14
-1.50877e-13
-3.42053e-13
-2.40051e-13
-1.62372e-12
-8.39321e-13
-1.48684e-12
4.54748e-13
7.77206e-14
-5.67535e-13
-1.14324e-12
-5.92264e-13
-3.12639e-13
-1.0375e-12
-1.2574e-12
-1.15585e-12
-7.82781e-13
-1.47049e-12
-2.21176e-12
-2.07455e-12
-5.62674e-13
9.61295e-15
3.39031e-13
-5.66681e-13
5.29561e-13
1.3704e-12
1.46598e-12
1.26454e-12
1.12913e-12
7.49482e-13
5.33632e-13
1.37447e-15
-1.13158e-12
-2.25406e-12
-2.62478e-12
-1.16885e-12
-1.62777e-12
-1.94703e-12
-2.6635e-12
-2.61021e-12
-2.62216e-12
-1.68715e-12
-2.63266e-12
-3.47676e-12
-2.75734e-12
-3.62331e-12
-3.7258e-12
-3.15059e-12
-3.87008e-12
-4.57788e-12
-3.8971e-12
-2.29105e-12
-2.66578e-12
-2.31087e-12
-1.35111e-12
8.01951e-14
1.42108e-13
8.11643e-13
1.30934e-14
-6.3791e-13
-1.42117e-14
3.27959e-13
3.61267e-13
9.726e-13
1.71171e-12
1.9797e-12
1.56935e-12
7.62682e-13
-3.41061e-13
7.05266e-13
9.20453e-13
1.75135e-12
1.69382e-12
1.72959e-12
1.84634e-12
1.7674e-12
1.34998e-12
2.02618e-12
1.8665e-12
2.80989e-12
3.40607e-12
2.72393e-12
3.58685e-12
3.73858e-12
3.53542e-12
2.60141e-12
3.13582e-12
1.6256e-12
-5.08741e-14
-5.99196e-14
-8.16636e-13
-8.04309e-13
-1.25664e-12
2.20234e-14
9.91828e-13
1.62999e-12
8.96675e-13
1.08332e-12
2.57039e-12
1.75682e-12
2.15915e-12
1.33409e-12
7.39259e-13
1.37254e-13
2.37864e-13
-9.22555e-13
-1.14712e-12
-2.84217e-13
-3.12639e-13
-2.27373e-13
-7.27653e-13
6.77238e-13
4.40149e-13
-5.00758e-13
-7.89034e-13
-6.48698e-13
1.13687e-13
-4.41054e-15
-2.30438e-13
-4.26326e-13
3.40062e-13
-5.11591e-13
-6.36937e-13
-3.26221e-13
-9.19603e-13
-1.08853e-12
-2.27646e-12
-1.10445e-12
-1.42001e-12
-1.525e-12
-1.34826e-12
-1.04659e-12
-3.2685e-13
1.36337e-12
2.97572e-12
2.678e-12
2.20379e-12
3.62622e-12
4.92189e-12
4.1516e-12
4.08739e-12
4.41696e-12
2.23563e-12
3.55512e-12
3.30563e-12
2.37931e-12
3.46961e-12
2.88057e-12
2.91052e-12
2.27784e-12
2.77413e-12
3.05017e-12
1.3352e-12
2.22894e-13
-2.96267e-14
3.2685e-13
7.1054e-14
7.58245e-13
1.13105e-12
2.55387e-12
8.23272e-13
1.37695e-12
6.10813e-13
5.45668e-13
1.51734e-12
4.40887e-13
5.34173e-13
9.15047e-13
2.45521e-12
1.71711e-12
3.18243e-12
4.08103e-12
4.29223e-12
3.65064e-12
3.89209e-12
5.59738e-12
6.51408e-12
7.49244e-12
8.32787e-12
7.36354e-12
7.40854e-12
7.45507e-12
8.27933e-12
7.81777e-12
8.74858e-12
8.04633e-12
8.25466e-12
7.97922e-12
8.35522e-12
7.70985e-12
6.42143e-12
6.56298e-12
6.95413e-12
6.74715e-12
5.3002e-12
6.45999e-12
5.03328e-12
4.90113e-12
4.88076e-12
4.44034e-12
3.19408e-12
2.47844e-12
3.58777e-12
4.47357e-12
4.80714e-12
3.53589e-12
1.85244e-12
6.71626e-13
1.27138e-13
1.18998e-13
6.3704e-13
1.44005e-12
2.74007e-12
2.32083e-12
3.39684e-12
9.45089e-13
-3.35313e-13
1.35753e-13
-2.07574e-14
4.78937e-13
2.34698e-12
1.46999e-12
9.01147e-13
1.41826e-12
9.68905e-13
3.64241e-13
2.4345e-14
-9.36892e-13
-9.4391e-13
-3.26082e-13
-2.16764e-13
-3.77549e-13
5.68432e-14
1.22785e-13
-2.84216e-14
-2.19106e-13
1.99164e-13
3.53423e-13
2.8739e-13
-5.4718e-13
-4.34508e-14
4.10101e-14
7.76784e-13
1.98952e-13
4.62998e-13
2.0262e-12
1.23098e-12
8.69838e-13
1.18313e-12
9.12497e-13
1.25086e-12
1.03118e-12
2.44753e-12
1.62328e-12
2.38948e-12
2.24571e-12
1.05288e-12
1.67554e-12
1.03381e-12
8.15324e-13
5.5584e-13
4.97381e-13
8.30756e-13
2.84216e-13
5.26911e-13
1.28687e-12
1.53274e-12
1.20234e-12
2.09417e-12
1.266e-12
2.56908e-12
2.58515e-12
2.00307e-12
1.93661e-12
1.59439e-12
1.40317e-12
5.72834e-13
2.41585e-13
1.43122e-12
1.96515e-12
3.64315e-12
4.18299e-12
3.69225e-12
2.96922e-12
2.3621e-12
2.24221e-12
2.01568e-12
3.01042e-12
3.52491e-12
2.84364e-12
3.20339e-12
2.89099e-12
2.68984e-12
1.72253e-12
2.98939e-12
2.48132e-12
3.00992e-12
3.71421e-12
1.70939e-12
1.09466e-12
3.35817e-13
-2.70007e-13
-8.56129e-13
-2.50965e-12
-1.78835e-12
-1.86798e-12
-1.35138e-12
-2.86505e-13
-1.01737e-12
-7.45379e-13
-4.26317e-14
-6.82121e-13
6.97239e-13
7.27442e-13
5.69229e-13
4.17249e-13
7.04289e-13
1.14866e-12
1.31945e-12
2.81512e-12
3.25629e-12
3.69159e-12
4.1903e-12
4.2758e-12
5.29043e-12
2.82249e-12
2.21102e-12
1.78982e-12
1.95189e-12
1.66467e-12
6.11868e-13
6.41309e-13
2.41585e-13
4.72678e-13
-1.20713e-13
-1.35327e-12
-2.36365e-12
-1.90271e-12
-2.01929e-12
3.0981e-13
9.94758e-14
4.26326e-13
7.10542e-13
2.94471e-13
1.31024e-13
-5.84386e-15
-6.37568e-13
-1.47488e-12
-2.1759e-12
-1.15676e-12
-1.89767e-12
-1.83105e-12
-1.01787e-12
-1.42397e-12
-1.38246e-12
-2.40462e-12
-2.02411e-12
-1.47577e-12
-1.48888e-12
-1.99711e-12
-1.76744e-12
-2.52699e-12
-3.06022e-12
-2.37128e-12
-2.1348e-12
-2.78241e-12
-1.68723e-12
-2.84055e-12
-1.40966e-12
-1.09187e-12
-6.17617e-13
6.26274e-13
4.07057e-13
1.71916e-12
2.18077e-12
5.04228e-12
7.2225e-12
9.35259e-12
1.40878e-11
1.97332e-11
2.80176e-11
4.08659e-11
5.84753e-11
8.27288e-11
1.19017e-10
1.7518e-10
2.58657e-10
3.86465e-10
5.78348e-10
8.64268e-10
1.29144e-09
1.92744e-09
2.86808e-09
4.2576e-09
6.29975e-09
9.29739e-09
1.36785e-08
2.00647e-08
2.93407e-08
4.27775e-08
6.21714e-08
9.00833e-08
1.30123e-07
1.87376e-07
2.68976e-07
3.84897e-07
5.49043e-07
7.80711e-07
1.1066e-06
1.56349e-06
2.20193e-06
3.09105e-06
4.32508e-06
6.032e-06
8.38494e-06
1.16173e-05
1.60422e-05
2.20788e-05
3.02849e-05
4.14012e-05
5.64062e-05
7.65877e-05
0.000103634
0.000139749
0.000187799
0.000251492
0.00033561
0.00044629
0.000591376
0.000780848
0.00102735
0.00134682
0.00175926
0.00228969
0.00296919
0.00383626
0.0049383
0.00633342
0.00809249
0.0103015
0.0130644
0.0165059
0.0207749
0.0260486
0.0325363
0.0404839
0.050179
0.0619553
0.0761986
0.0933516
0.11392
0.138475
0.167663
0.202205
0.242905
0.290646
0.346402
0.411226
0.486262
0.57273
0.671933
0.78524
0.914087
1.05996
1.22439
1.40893
1.61515
1.84461
2.09885
2.37938
2.68764
3.025
3.39275
3.79204
4.22394
4.68935
5.18905
5.72364
6.29359
6.89919
7.54057
8.21768
8.93034
9.6782
10.4608
11.2774
12.1274
13.0098
13.9236
14.8679
15.8415
16.8431
17.8715
18.9254
20.0035
21.1045
22.227
23.3696
24.5312
25.7102
26.9056
28.1161
29.3404
30.5774
31.826
33.0852
34.354
35.6314
36.9165
38.2086
39.5067
40.8102
42.1185
43.4308
44.7467
46.0656
47.387
48.7105
50.0357
51.3622
52.6898
54.0181
55.3469
56.676
58.0052
59.3343
60.6632
61.9918
63.3199
64.6474
65.9744
67.3007
68.6263
69.9511
71.2751
72.5984
73.9209
75.2426
76.5635
77.8836
79.203
80.5216
81.8394
83.1566
84.4731
85.7889
87.1041
88.4187
89.7327
91.0462
92.3592
93.6717
94.9838
96.2954
97.6067
98.9177
100.228
101.539
102.849
104.159
105.468
106.778
108.087
109.396
110.705
112.015
113.324
114.633
115.942
117.251
118.56
119.87
121.179
122.488
123.798
125.108
126.418
127.728
129.039
130.35
131.661
132.972
134.284
135.595
136.908
138.22
139.533
140.846
142.16
143.474
144.788
146.103
147.418
148.734
150.05
151.367
152.684
154.001
155.319
156.638
157.956
159.276
160.596
161.916
163.237
164.559
165.881
167.204
168.527
169.851
171.175
172.501
173.826
175.153
176.48
177.808
179.136
180.466
181.796
183.126
184.458
185.79
187.123
188.457
189.792
191.128
192.464
193.802
195.14
196.48
197.82
199.161
200.504
201.847
203.191
204.537
205.883
207.231
208.58
209.929
211.28
212.633
213.986
215.341
216.696
218.054
219.412
220.771
222.132
223.495
224.858
226.223
227.589
228.957
230.326
231.697
233.069
234.442
235.817
237.193
238.571
239.951
241.332
242.714
244.098
245.484
246.871
248.26
249.651
251.044
252.438
253.833
255.231
256.63
258.032
259.435
260.839
262.246
263.655
265.065
266.478
267.892
269.308
270.727
272.147
273.57
274.994
276.421
277.85
279.281
280.714
282.149
283.587
285.027
286.469
287.914
289.361
290.81
292.262
293.716
295.173
296.632
298.094
299.558
301.025
302.495
303.967
305.442
306.92
308.401
309.884
311.37
312.859
314.351
315.846
317.344
318.845
320.349
321.856
323.367
324.88
326.397
327.917
329.44
330.967
332.497
334.03
335.567
337.108
338.652
340.2
341.752
343.307
344.866
346.429
347.996
349.566
351.141
352.719
354.302
355.889
357.481
359.077
360.676
362.281
363.89
365.504
367.122
368.745
370.373
372.006
373.643
375.286
376.933
378.586
380.245
381.908
383.577
385.251
386.93
388.614
390.303
392
393.703
395.413
397.129
398.85
400.577
402.313
404.054
405.802
407.555
409.317
411.086
412.862
414.644
416.435
418.233
420.039
421.852
423.674
425.504
427.343
429.189
431.044
432.907
434.78
436.661
438.554
440.456
442.369
444.29
446.221
448.163
450.116
452.079
454.054
456.039
458.037
460.045
462.067
464.101
466.148
468.207
470.281
472.367
474.468
476.584
478.715
480.86
483.022
485.2
487.395
489.606
491.835
494.081
496.347
498.631
500.935
503.259
505.604
507.971
510.36
512.772
515.208
517.668
520.154
522.666
525.206
527.774
530.372
532.999
535.659
538.35
541.078
543.84
546.642
549.482
552.364
555.289
558.26
561.278
564.347
567.467
570.646
573.882
577.184
580.549
583.989
587.502
591.099
594.778
598.555
602.425
606.406
610.494
614.707
619.038
623.506
628.103
632.846
637.722
642.743
647.888
653.149
658.347
662.605
666.593
670.391
673.97
677.338
680.518
683.551
686.48
689.348
692.194
695.045
697.923
700.838
703.794
706.79
709.819
712.871
715.937
719.008
722.074
725.132
728.176
731.205
734.217
737.212
740.192
743.161
746.12
749.072
752.017
754.956
757.886
760.806
763.718
766.619
769.511
772.389
775.254
778.102
780.935
783.749
786.547
789.327
792.092
794.839
797.571
800.285
802.983
805.664
808.33
810.981
813.612
816.223
818.817
821.396
823.959
826.505
829.028
831.529
834.007
836.467
838.909
841.334
843.738
846.112
848.448
850.749
853.022
855.266
857.477
859.644
861.778
863.879
865.928
867.922
869.873
871.781
873.597
875.343
877.048
878.67
880.17
881.63
883.051
884.293
885.44
886.517
887.372
887.875
888.181
888.373
888.356
888.366
888.737
889.653
888.798
879.215
865.203
861.881
)
;

boundaryField
{
    sideLeft
    {
        type            symmetryPlane;
        value           uniform 0;
    }
    sideRight
    {
        type            calculated;
        value           uniform 866.062;
    }
    topbottom
    {
        type            empty;
        value           nonuniform 0();
    }
    frontback
    {
        type            empty;
        value           nonuniform 0();
    }
}


// ************************************************************************* //
