/*--------------------------------*- C++ -*----------------------------------*\
| =========                 |                                                 |
| \\      /  F ield         | OpenFOAM: The Open Source CFD Toolbox           |
|  \\    /   O peration     | Version:  2.4.0                                 |
|   \\  /    A nd           | Web:      www.OpenFOAM.org                      |
|    \\/     M anipulation  |                                                 |
\*---------------------------------------------------------------------------*/
FoamFile
{
    version     2.0;
    format      ascii;
    class       surfaceScalarField;
    location    "0.16";
    object      phi.water;
}
// * * * * * * * * * * * * * * * * * * * * * * * * * * * * * * * * * * * * * //

dimensions      [0 3 -1 0 0 0 0];

internalField   nonuniform List<scalar> 
999
(
-9.45692e-14
1.83323e-13
5.11591e-13
1.49975e-13
-6.61645e-13
-8.22658e-14
-1.7053e-13
-6.69454e-13
-4.55113e-13
-2.98428e-13
-3.26849e-13
1.29382e-12
2.49257e-12
2.84919e-12
3.22937e-12
2.33988e-12
1.58103e-12
1.90891e-12
1.72338e-12
1.76551e-12
1.85064e-12
2.28004e-12
2.22169e-12
1.92123e-12
2.05229e-12
1.02746e-12
1.60816e-12
1.8174e-12
2.71382e-12
1.78845e-12
1.96698e-13
1.05792e-12
1.07066e-12
1.05983e-12
6.82122e-13
-3.78251e-13
-1.14679e-13
-2.96894e-13
-1.73741e-12
-8.96165e-13
-1.77106e-12
4.54748e-13
7.02998e-13
-9.08596e-13
-1.02956e-12
-1.1607e-12
-3.69482e-13
-5.82753e-13
-1.31424e-12
-1.04216e-12
-5.55407e-13
-1.58418e-12
-2.2686e-12
-2.13139e-12
-7.33204e-13
-1.04074e-13
6.80091e-13
-2.25621e-13
1.31657e-13
1.31356e-12
1.46598e-12
1.54875e-12
8.44915e-13
6.35796e-13
7.61006e-13
-2.25999e-13
-1.30211e-12
-2.02669e-12
-2.34056e-12
-1.56675e-12
-1.28671e-12
-2.11756e-12
-2.37929e-12
-2.89442e-12
-2.679e-12
-1.57346e-12
-2.2916e-12
-3.53361e-12
-3.0984e-12
-3.16857e-12
-3.78264e-12
-3.32112e-12
-3.92693e-12
-4.35051e-12
-3.55604e-12
-2.80264e-12
-2.72263e-12
-2.19719e-12
-1.52164e-12
3.07569e-13
1.98951e-13
6.41113e-13
-3.84811e-13
-4.6738e-13
-1.42117e-14
6.6902e-13
3.61267e-13
8.58913e-13
1.59802e-12
1.92286e-12
1.51251e-12
9.90055e-13
-4.54748e-13
5.91579e-13
1.03414e-12
1.41029e-12
1.92119e-12
2.01381e-12
1.33475e-12
2.05162e-12
1.80473e-12
1.79881e-12
1.75282e-12
2.98042e-12
3.1787e-12
3.06499e-12
3.47316e-12
3.5112e-12
3.76279e-12
2.71509e-12
2.73791e-12
1.90982e-12
-1.07717e-13
1.67454e-13
-9.30323e-13
-1.03168e-12
-1.08611e-12
-9.16634e-14
7.64455e-13
1.23208e-12
8.96675e-13
1.53807e-12
2.51355e-12
1.92735e-12
2.1023e-12
1.33409e-12
6.25573e-13
5.35158e-13
3.51551e-13
-1.32046e-12
-1.20397e-12
-2.84217e-13
-2.55795e-13
-1.7053e-13
-9.55027e-13
1.0183e-12
2.69618e-13
-4.43914e-13
-9.59564e-13
-7.05542e-13
3.9801e-19
5.24329e-14
-3.06426e-15
-1.42109e-13
-5.78421e-14
-5.11591e-13
-5.80093e-13
-9.88472e-14
-1.37435e-12
-9.74841e-13
-2.27646e-12
-1.16129e-12
-1.24948e-12
-1.80921e-12
-1.57564e-12
-8.76056e-13
1.84741e-13
1.30653e-12
2.63466e-12
2.84853e-12
2.14694e-12
3.56937e-12
4.86505e-12
4.32213e-12
4.03055e-12
4.0759e-12
2.69038e-12
3.66881e-12
3.36247e-12
2.37931e-12
3.18539e-12
2.6532e-12
3.13789e-12
2.27784e-12
2.88782e-12
3.33438e-12
1.22151e-12
-6.13226e-14
1.40904e-13
2.13163e-13
1.42106e-14
8.71932e-13
1.47211e-12
1.98544e-12
1.10749e-12
1.09273e-12
8.9503e-13
5.45668e-13
1.06259e-12
7.81948e-13
8.75234e-13
7.44517e-13
2.56889e-12
1.83079e-12
2.78452e-12
4.08103e-12
4.23539e-12
3.65064e-12
3.7784e-12
5.65423e-12
6.62776e-12
7.54928e-12
7.87313e-12
8.04566e-12
7.29485e-12
7.39823e-12
8.27933e-12
7.76093e-12
8.80543e-12
7.76212e-12
8.7094e-12
7.92238e-12
8.18469e-12
8.10776e-12
6.42143e-12
6.27876e-12
7.1815e-12
6.74715e-12
5.64127e-12
5.9484e-12
5.20381e-12
4.7306e-12
4.76708e-12
4.44034e-12
3.02355e-12
2.64897e-12
4.09937e-12
4.41673e-12
4.63661e-12
3.59274e-12
1.39769e-12
7.85313e-13
2.97668e-13
1.75842e-13
3.52823e-13
1.49689e-12
2.74007e-12
2.20714e-12
2.8284e-12
1.57037e-12
5.74766e-15
-2.05308e-13
-1.34444e-13
1.04737e-12
2.06276e-12
1.41314e-12
6.1693e-13
1.30457e-12
1.42365e-12
9.89519e-13
-7.14619e-13
-1.16427e-12
-6.59693e-13
-2.12395e-13
-1.59921e-13
-5.48079e-13
2.84217e-13
1.79629e-13
-2.84216e-14
-2.19106e-13
-8.50535e-14
2.39736e-13
4.57921e-13
-3.7665e-13
-1.00294e-13
-1.58334e-14
7.1994e-13
-8.52655e-14
4.62998e-13
1.91251e-12
1.45835e-12
1.15406e-12
1.0126e-12
6.85123e-13
1.76245e-12
7.46966e-13
2.39069e-12
2.13487e-12
2.27579e-12
1.90465e-12
1.10972e-12
1.67554e-12
1.20434e-12
7.58481e-13
6.12683e-13
3.83694e-13
6.60225e-13
2.27373e-13
5.83754e-13
1.4574e-12
1.64642e-12
1.25919e-12
1.69626e-12
1.60707e-12
2.39855e-12
2.642e-12
2.34413e-12
1.76608e-12
1.70808e-12
1.34633e-12
6.29677e-13
1.42115e-14
1.26069e-12
2.07884e-12
3.7e-12
4.23983e-12
3.91962e-12
2.51447e-12
2.70316e-12
2.52642e-12
1.16302e-12
3.29463e-12
3.41122e-12
2.61627e-12
2.97602e-12
3.1752e-12
2.91721e-12
1.66569e-12
2.8757e-12
2.595e-12
2.61202e-12
3.88474e-12
1.82307e-12
7.53602e-13
2.78973e-13
-4.26335e-14
-6.85598e-13
-2.73702e-12
-1.73151e-12
-1.75429e-12
-1.06716e-12
-2.29662e-13
-1.30158e-12
-9.72753e-13
1.27899e-13
-6.25278e-13
6.40396e-13
6.13756e-13
4.55542e-13
3.03562e-13
9.31663e-13
1.14866e-12
9.78392e-13
3.04249e-12
3.54051e-12
3.40737e-12
4.1903e-12
4.21895e-12
5.00621e-12
3.1067e-12
2.26786e-12
1.90351e-12
2.23611e-12
1.15308e-12
6.11868e-13
7.54996e-13
4.68959e-13
9.27425e-13
-6.89147e-13
-1.5238e-12
-1.79521e-12
-2.35746e-12
-1.9056e-12
8.24362e-14
2.13163e-13
5.40013e-13
1.98951e-13
4.08157e-13
7.41805e-14
1.07843e-13
-6.37568e-13
-1.70226e-12
-2.28958e-12
-4.74641e-13
-1.84082e-12
-2.22896e-12
-1.1884e-12
-1.36713e-12
-1.38246e-12
-2.23409e-12
-1.91043e-12
-1.6463e-12
-1.65942e-12
-1.88342e-12
-1.7106e-12
-2.58383e-12
-3.1739e-12
-2.1439e-12
-2.02112e-12
-2.8961e-12
-2.02829e-12
-2.32896e-12
-1.58019e-12
-8.07654e-13
-7.31304e-13
6.26274e-13
2.36527e-13
1.60547e-12
2.3513e-12
4.98544e-12
7.10881e-12
9.69365e-12
1.34057e-11
1.97332e-11
2.81881e-11
4.07523e-11
5.84753e-11
8.22173e-11
1.18676e-10
1.7518e-10
2.58031e-10
3.84874e-10
5.77041e-10
8.62051e-10
1.28712e-09
1.92244e-09
2.86052e-09
4.24589e-09
6.28355e-09
9.27352e-09
1.36437e-08
2.00147e-08
2.92687e-08
4.26741e-08
6.2024e-08
8.98736e-08
1.29825e-07
1.86954e-07
2.68382e-07
3.84062e-07
5.47874e-07
7.79081e-07
1.10433e-06
1.56035e-06
2.1976e-06
3.08508e-06
4.31689e-06
6.02082e-06
8.36972e-06
1.15966e-05
1.60143e-05
2.20412e-05
3.02346e-05
4.13339e-05
5.63165e-05
7.64688e-05
0.000103477
0.000139543
0.000187528
0.000251138
0.000335149
0.000445694
0.000590607
0.00077986
0.00102608
0.0013452
0.00175722
0.0022871
0.00296594
0.00383218
0.00493321
0.0063271
0.00808468
0.0102919
0.0130526
0.0164915
0.0207574
0.0260275
0.0325109
0.0404535
0.0501427
0.0619124
0.0761479
0.0932922
0.11385
0.138394
0.16757
0.202098
0.242782
0.290507
0.346244
0.411049
0.486063
0.572509
0.671688
0.784971
0.913792
1.05964
1.22404
1.40856
1.61475
1.84418
2.0984
2.37891
2.68715
3.02449
3.39222
3.7915
4.22339
4.68879
5.18848
5.72308
6.29303
6.89864
7.54002
8.21714
8.92982
9.6777
10.4603
11.2769
12.1269
13.0094
13.9233
14.8676
15.8411
16.8428
17.8712
18.9252
20.0033
21.1043
22.2268
23.3695
24.531
25.7102
26.9056
28.116
29.3404
30.5774
31.8261
33.0853
34.3541
35.6315
36.9166
38.2087
39.5068
40.8103
42.1186
43.4309
44.7468
46.0657
47.3871
48.7106
50.0358
51.3624
52.6899
54.0183
55.3471
56.6762
58.0054
59.3345
60.6634
61.992
63.3201
64.6476
65.9746
67.3009
68.6264
69.9513
71.2753
72.5986
73.9211
75.2428
76.5637
77.8838
79.2031
80.5217
81.8396
83.1567
84.4732
85.789
87.1042
88.4188
89.7329
91.0464
92.3593
93.6718
94.9839
96.2956
97.6069
98.9178
100.228
101.539
102.849
104.159
105.468
106.778
108.087
109.396
110.706
112.015
113.324
114.633
115.942
117.251
118.56
119.87
121.179
122.489
123.798
125.108
126.418
127.729
129.039
130.35
131.661
132.972
134.284
135.596
136.908
138.22
139.533
140.847
142.16
143.474
144.789
146.103
147.419
148.734
150.05
151.367
152.684
154.001
155.319
156.638
157.957
159.276
160.596
161.916
163.237
164.559
165.881
167.204
168.527
169.851
171.175
172.501
173.826
175.153
176.48
177.808
179.136
180.466
181.796
183.126
184.458
185.79
187.123
188.457
189.792
191.128
192.465
193.802
195.14
196.48
197.82
199.161
200.504
201.847
203.191
204.537
205.883
207.231
208.58
209.93
211.281
212.633
213.986
215.341
216.697
218.054
219.412
220.772
222.132
223.495
224.858
226.223
227.589
228.957
230.326
231.697
233.069
234.442
235.817
237.193
238.571
239.951
241.332
242.714
244.098
245.484
246.871
248.26
249.651
251.044
252.438
253.833
255.231
256.63
258.032
259.435
260.839
262.246
263.655
265.065
266.478
267.892
269.308
270.727
272.147
273.57
274.994
276.421
277.85
279.281
280.714
282.149
283.587
285.027
286.469
287.914
289.361
290.81
292.262
293.716
295.173
296.632
298.094
299.558
301.025
302.495
303.967
305.442
306.92
308.401
309.884
311.37
312.859
314.351
315.846
317.344
318.845
320.349
321.857
323.367
324.88
326.397
327.917
329.44
330.967
332.497
334.03
335.568
337.108
338.652
340.2
341.752
343.307
344.866
346.429
347.996
349.566
351.141
352.719
354.302
355.889
357.481
359.077
360.676
362.281
363.89
365.504
367.122
368.745
370.373
372.006
373.643
375.286
376.933
378.587
380.245
381.908
383.577
385.251
386.93
388.614
390.303
392
393.703
395.413
397.129
398.85
400.577
402.313
404.054
405.802
407.556
409.317
411.086
412.862
414.644
416.435
418.233
420.039
421.852
423.674
425.504
427.343
429.189
431.044
432.907
434.78
436.661
438.554
440.456
442.369
444.29
446.221
448.163
450.116
452.079
454.054
456.039
458.037
460.046
462.067
464.101
466.148
468.207
470.28
472.367
474.468
476.584
478.715
480.86
483.022
485.2
487.395
489.606
491.835
494.081
496.347
498.631
500.935
503.259
505.604
507.971
510.36
512.772
515.208
517.668
520.154
522.666
525.206
527.774
530.372
532.999
535.659
538.35
541.078
543.84
546.642
549.482
552.364
555.289
558.26
561.277
564.347
567.467
570.646
573.882
577.184
580.549
583.989
587.502
591.099
594.778
598.555
602.425
606.406
610.494
614.707
619.038
623.506
628.103
632.846
637.722
642.744
647.888
653.149
658.347
662.605
666.593
670.391
673.97
677.338
680.518
683.551
686.48
689.348
692.194
695.045
697.923
700.838
703.794
706.79
709.819
712.871
715.937
719.008
722.074
725.132
728.176
731.205
734.216
737.212
740.192
743.161
746.12
749.071
752.017
754.956
757.886
760.806
763.718
766.619
769.511
772.389
775.254
778.102
780.935
783.749
786.547
789.327
792.091
794.839
797.571
800.285
802.983
805.664
808.33
810.981
813.612
816.223
818.817
821.396
823.959
826.505
829.027
831.529
834.006
836.467
838.908
841.334
843.737
846.111
848.448
850.748
853.022
855.265
857.477
859.643
861.778
863.878
865.927
867.922
869.872
871.781
873.595
875.342
877.047
878.668
880.169
881.628
883.049
884.29
885.44
886.513
887.371
887.874
888.187
888.368
888.348
888.333
888.672
889.608
888.745
879.238
865.321
861.959
)
;

boundaryField
{
    sideLeft
    {
        type            symmetryPlane;
        value           uniform 0;
    }
    sideRight
    {
        type            calculated;
        value           uniform 2962.29;
    }
    topbottom
    {
        type            empty;
        value           nonuniform 0();
    }
    frontback
    {
        type            empty;
        value           nonuniform 0();
    }
}


// ************************************************************************* //
