/*--------------------------------*- C++ -*----------------------------------*\
| =========                 |                                                 |
| \\      /  F ield         | OpenFOAM: The Open Source CFD Toolbox           |
|  \\    /   O peration     | Version:  2.4.0                                 |
|   \\  /    A nd           | Web:      www.OpenFOAM.org                      |
|    \\/     M anipulation  |                                                 |
\*---------------------------------------------------------------------------*/
FoamFile
{
    version     2.0;
    format      ascii;
    class       volScalarField;
    location    "0.16";
    object      pMean;
}
// * * * * * * * * * * * * * * * * * * * * * * * * * * * * * * * * * * * * * //

dimensions      [1 -1 -2 0 0 0 0];

internalField   nonuniform List<scalar> 
1000
(
5e+06
5e+06
5e+06
5e+06
5e+06
5e+06
5e+06
5e+06
5e+06
5e+06
5e+06
5e+06
5e+06
5e+06
5e+06
5e+06
5e+06
5e+06
5e+06
5e+06
5e+06
5e+06
5e+06
5e+06
5e+06
5e+06
5e+06
5e+06
5e+06
5e+06
5e+06
5e+06
5e+06
5e+06
5e+06
5e+06
5e+06
5e+06
5e+06
5e+06
5e+06
5e+06
5e+06
5e+06
5e+06
5e+06
5e+06
5e+06
5e+06
5e+06
5e+06
5e+06
5e+06
5e+06
5e+06
5e+06
5e+06
5e+06
5e+06
5e+06
5e+06
5e+06
5e+06
5e+06
5e+06
5e+06
5e+06
5e+06
5e+06
5e+06
5e+06
5e+06
5e+06
5e+06
5e+06
5e+06
5e+06
5e+06
5e+06
5e+06
5e+06
5e+06
5e+06
5e+06
5e+06
5e+06
5e+06
5e+06
5e+06
5e+06
5e+06
5e+06
5e+06
5e+06
5e+06
5e+06
5e+06
5e+06
5e+06
5e+06
5e+06
5e+06
5e+06
5e+06
5e+06
5e+06
5e+06
5e+06
5e+06
5e+06
5e+06
5e+06
5e+06
5e+06
5e+06
5e+06
5e+06
5e+06
5e+06
5e+06
5e+06
5e+06
5e+06
5e+06
5e+06
5e+06
5e+06
5e+06
5e+06
5e+06
5e+06
5e+06
5e+06
5e+06
5e+06
5e+06
5e+06
5e+06
5e+06
5e+06
5e+06
5e+06
5e+06
5e+06
5e+06
5e+06
5e+06
5e+06
5e+06
5e+06
5e+06
5e+06
5e+06
5e+06
5e+06
5e+06
5e+06
5e+06
5e+06
5e+06
5e+06
5e+06
5e+06
5e+06
5e+06
5e+06
5e+06
5e+06
5e+06
5e+06
5e+06
5e+06
5e+06
5e+06
5e+06
5e+06
5e+06
5e+06
5e+06
5e+06
5e+06
5e+06
5e+06
5e+06
5e+06
5e+06
5e+06
5e+06
5e+06
5e+06
5e+06
5e+06
5e+06
5e+06
5e+06
5e+06
5e+06
5e+06
5e+06
5e+06
5e+06
5e+06
5e+06
5e+06
5e+06
5e+06
5e+06
5e+06
5e+06
5e+06
5e+06
5e+06
5e+06
5e+06
5e+06
5e+06
5e+06
5e+06
5e+06
5e+06
5e+06
5e+06
5e+06
5e+06
5e+06
5e+06
5e+06
5e+06
5e+06
5e+06
5e+06
5e+06
5e+06
5e+06
5e+06
5e+06
5e+06
5e+06
5e+06
5e+06
5e+06
5e+06
5e+06
5e+06
5e+06
5e+06
5e+06
5e+06
5e+06
5e+06
5e+06
5e+06
5e+06
5e+06
5e+06
5e+06
5e+06
5e+06
5e+06
5e+06
5e+06
5e+06
5e+06
5e+06
5e+06
5e+06
5e+06
5e+06
5e+06
5e+06
5e+06
5e+06
5e+06
5e+06
5e+06
5e+06
5e+06
5e+06
5e+06
5e+06
5e+06
5e+06
5e+06
5e+06
5e+06
5e+06
5e+06
5e+06
5e+06
5e+06
5e+06
5e+06
5e+06
5e+06
5e+06
5e+06
5e+06
5e+06
5e+06
5e+06
5e+06
5e+06
5e+06
5e+06
5e+06
5e+06
5e+06
5e+06
5e+06
5e+06
5e+06
5e+06
5e+06
5e+06
5e+06
5e+06
5e+06
5e+06
5e+06
5e+06
5e+06
5e+06
5e+06
5e+06
5e+06
5e+06
5e+06
5e+06
5e+06
5e+06
5e+06
5e+06
5e+06
5e+06
5e+06
5e+06
5e+06
5e+06
5e+06
5e+06
5e+06
5e+06
5e+06
5e+06
5e+06
5e+06
5e+06
5e+06
5e+06
5e+06
5e+06
5e+06
5e+06
5e+06
5e+06
5e+06
5e+06
5e+06
5e+06
5e+06
5e+06
5e+06
5e+06
5e+06
5e+06
5e+06
5e+06
5e+06
5e+06
5e+06
5e+06
5e+06
5e+06
5e+06
5e+06
5e+06
5e+06
5e+06
5e+06
5e+06
5e+06
5e+06
5e+06
5e+06
5e+06
5e+06
5e+06
5e+06
5e+06
5e+06
5e+06
5e+06
5e+06
5e+06
5e+06
5e+06
5e+06
5e+06
5e+06
5e+06
5e+06
5e+06
5e+06
5e+06
5e+06
5e+06
5e+06
5e+06
5e+06
5e+06
5e+06
5e+06
5e+06
5e+06
5e+06
5e+06
5e+06
5e+06
5e+06
5e+06
5e+06
5e+06
5e+06
5e+06
5e+06
5e+06
5e+06
5e+06
5e+06
5e+06
5e+06
5e+06
5e+06
5e+06
5e+06
5e+06
5e+06
5e+06
5e+06
5e+06
5e+06
5e+06
5e+06
5e+06
5e+06
5e+06
5e+06
5e+06
5e+06
5e+06
5e+06
5e+06
5e+06
5e+06
5e+06
5e+06
5e+06
5e+06
5e+06
5e+06
5e+06
5e+06
5e+06
5e+06
5e+06
5e+06
5e+06
5e+06
5e+06
5e+06
5e+06
5e+06
5e+06
5e+06
5e+06
5e+06
5e+06
5e+06
5e+06
5e+06
5e+06
5e+06
5e+06
5e+06
4.99999e+06
4.99999e+06
4.99999e+06
4.99999e+06
4.99999e+06
4.99998e+06
4.99998e+06
4.99998e+06
4.99997e+06
4.99997e+06
4.99996e+06
4.99995e+06
4.99994e+06
4.99993e+06
4.99992e+06
4.99991e+06
4.99989e+06
4.99987e+06
4.99985e+06
4.99983e+06
4.9998e+06
4.99977e+06
4.99973e+06
4.99969e+06
4.99965e+06
4.9996e+06
4.99955e+06
4.99949e+06
4.99942e+06
4.99935e+06
4.99927e+06
4.99918e+06
4.99909e+06
4.99899e+06
4.99888e+06
4.99876e+06
4.99863e+06
4.99849e+06
4.99834e+06
4.99818e+06
4.998e+06
4.99782e+06
4.99763e+06
4.99742e+06
4.99721e+06
4.99697e+06
4.99673e+06
4.99648e+06
4.99621e+06
4.99592e+06
4.99563e+06
4.99532e+06
4.995e+06
4.99466e+06
4.99431e+06
4.99394e+06
4.99356e+06
4.99316e+06
4.99275e+06
4.99233e+06
4.99189e+06
4.99143e+06
4.99096e+06
4.99048e+06
4.98998e+06
4.98946e+06
4.98893e+06
4.98839e+06
4.98782e+06
4.98725e+06
4.98666e+06
4.98605e+06
4.98543e+06
4.98479e+06
4.98414e+06
4.98347e+06
4.98279e+06
4.98209e+06
4.98137e+06
4.98064e+06
4.9799e+06
4.97914e+06
4.97836e+06
4.97757e+06
4.97677e+06
4.97594e+06
4.97511e+06
4.97426e+06
4.97339e+06
4.97251e+06
4.97161e+06
4.9707e+06
4.96977e+06
4.96882e+06
4.96787e+06
4.96689e+06
4.9659e+06
4.9649e+06
4.96388e+06
4.96284e+06
4.96179e+06
4.96073e+06
4.95965e+06
4.95855e+06
4.95744e+06
4.95632e+06
4.95517e+06
4.95402e+06
4.95285e+06
4.95166e+06
4.95046e+06
4.94924e+06
4.94801e+06
4.94676e+06
4.9455e+06
4.94422e+06
4.94293e+06
4.94162e+06
4.9403e+06
4.93896e+06
4.9376e+06
4.93623e+06
4.93485e+06
4.93345e+06
4.93203e+06
4.9306e+06
4.92916e+06
4.9277e+06
4.92622e+06
4.92473e+06
4.92323e+06
4.9217e+06
4.92017e+06
4.91861e+06
4.91705e+06
4.91546e+06
4.91387e+06
4.91225e+06
4.91062e+06
4.90898e+06
4.90732e+06
4.90564e+06
4.90395e+06
4.90225e+06
4.90053e+06
4.89879e+06
4.89704e+06
4.89527e+06
4.89349e+06
4.89169e+06
4.88988e+06
4.88805e+06
4.8862e+06
4.88434e+06
4.88247e+06
4.88058e+06
4.87867e+06
4.87675e+06
4.87481e+06
4.87286e+06
4.87089e+06
4.8689e+06
4.8669e+06
4.86489e+06
4.86286e+06
4.86081e+06
4.85875e+06
4.85667e+06
4.85457e+06
4.85246e+06
4.85034e+06
4.8482e+06
4.84604e+06
4.84387e+06
4.84168e+06
4.83947e+06
4.83725e+06
4.83502e+06
4.83277e+06
4.8305e+06
4.82822e+06
4.82592e+06
4.8236e+06
4.82127e+06
4.81892e+06
4.81656e+06
4.81418e+06
4.81178e+06
4.80937e+06
4.80694e+06
4.8045e+06
4.80204e+06
4.79956e+06
4.79707e+06
4.79456e+06
4.79204e+06
4.7895e+06
4.78694e+06
4.78437e+06
4.78178e+06
4.77917e+06
4.77655e+06
4.77391e+06
4.77126e+06
4.76858e+06
4.7659e+06
4.76319e+06
4.76047e+06
4.75773e+06
4.75498e+06
4.75221e+06
4.74942e+06
4.74661e+06
4.74379e+06
4.74096e+06
4.7381e+06
4.73523e+06
4.73234e+06
4.72944e+06
4.72652e+06
4.72358e+06
4.72062e+06
4.71765e+06
4.71466e+06
4.71165e+06
4.70863e+06
4.70559e+06
4.70253e+06
4.69945e+06
4.69636e+06
4.69325e+06
4.69012e+06
4.68698e+06
4.68382e+06
4.68064e+06
4.67744e+06
4.67423e+06
4.67099e+06
4.66774e+06
4.66448e+06
4.66119e+06
4.65789e+06
4.65457e+06
4.65123e+06
4.64788e+06
4.6445e+06
4.64111e+06
4.6377e+06
4.63427e+06
4.63083e+06
4.62736e+06
4.62388e+06
4.62038e+06
4.61686e+06
4.61333e+06
4.60977e+06
4.6062e+06
4.60261e+06
4.59899e+06
4.59537e+06
4.59172e+06
4.58805e+06
4.58437e+06
4.58066e+06
4.57694e+06
4.5732e+06
4.56944e+06
4.56566e+06
4.56186e+06
4.55804e+06
4.5542e+06
4.55035e+06
4.54647e+06
4.54257e+06
4.53866e+06
4.53473e+06
4.53077e+06
4.5268e+06
4.5228e+06
4.51879e+06
4.51476e+06
4.51071e+06
4.50663e+06
4.50254e+06
4.49843e+06
4.49429e+06
4.49014e+06
4.48596e+06
4.48177e+06
4.47755e+06
4.47332e+06
4.46906e+06
4.46478e+06
4.46048e+06
4.45616e+06
4.45182e+06
4.44746e+06
4.44308e+06
4.43867e+06
4.43425e+06
4.4298e+06
4.42533e+06
4.42084e+06
4.41633e+06
4.41179e+06
4.40723e+06
4.40266e+06
4.39805e+06
4.39343e+06
4.38878e+06
4.38411e+06
4.37942e+06
4.37471e+06
4.36997e+06
4.36521e+06
4.36043e+06
4.35562e+06
4.35079e+06
4.34593e+06
4.34105e+06
4.33615e+06
4.33123e+06
4.32627e+06
4.3213e+06
4.3163e+06
4.31128e+06
4.30623e+06
4.30115e+06
4.29605e+06
4.29093e+06
4.28578e+06
4.28061e+06
4.2754e+06
4.27018e+06
4.26492e+06
4.25965e+06
4.25434e+06
4.24901e+06
4.24365e+06
4.23826e+06
4.23285e+06
4.2274e+06
4.22193e+06
4.21644e+06
4.21091e+06
4.20536e+06
4.19977e+06
4.19416e+06
4.18852e+06
4.18285e+06
4.17715e+06
4.17142e+06
4.16566e+06
4.15987e+06
4.15405e+06
4.14819e+06
4.14231e+06
4.13639e+06
4.13044e+06
4.12446e+06
4.11845e+06
4.1124e+06
4.10632e+06
4.10021e+06
4.09406e+06
4.08787e+06
4.08166e+06
4.0754e+06
4.06911e+06
4.06278e+06
4.05642e+06
4.05002e+06
4.04358e+06
4.0371e+06
4.03058e+06
4.02403e+06
4.01743e+06
4.01079e+06
4.00411e+06
3.99739e+06
3.99062e+06
3.98382e+06
3.97696e+06
3.97006e+06
3.96312e+06
3.95613e+06
3.94909e+06
3.942e+06
3.93486e+06
3.92767e+06
3.92043e+06
3.91314e+06
3.90579e+06
3.89838e+06
3.89092e+06
3.88339e+06
3.87581e+06
3.86817e+06
3.86046e+06
3.85268e+06
3.84484e+06
3.83692e+06
3.82894e+06
3.82088e+06
3.81274e+06
3.80452e+06
3.79622e+06
3.78784e+06
3.77938e+06
3.77083e+06
3.7622e+06
3.75349e+06
3.7447e+06
3.73585e+06
3.72695e+06
3.71802e+06
3.70908e+06
3.70021e+06
3.69146e+06
3.68283e+06
3.67432e+06
3.66588e+06
3.65748e+06
3.64908e+06
3.64066e+06
3.63219e+06
3.62367e+06
3.61508e+06
3.60644e+06
3.59775e+06
3.589e+06
3.58022e+06
3.57139e+06
3.56253e+06
3.55365e+06
3.54473e+06
3.53579e+06
3.52682e+06
3.51782e+06
3.5088e+06
3.49974e+06
3.49066e+06
3.48155e+06
3.47241e+06
3.46324e+06
3.45404e+06
3.44481e+06
3.43556e+06
3.42628e+06
3.41697e+06
3.40764e+06
3.39828e+06
3.3889e+06
3.3795e+06
3.37007e+06
3.36062e+06
3.35115e+06
3.34166e+06
3.33214e+06
3.32261e+06
3.31306e+06
3.30349e+06
3.29391e+06
3.28431e+06
3.27469e+06
3.26506e+06
3.25542e+06
3.24576e+06
3.23609e+06
3.22641e+06
3.21672e+06
3.20702e+06
3.19731e+06
3.18759e+06
3.17787e+06
3.16814e+06
3.15842e+06
3.14869e+06
3.13896e+06
3.12925e+06
3.11954e+06
3.10985e+06
3.10018e+06
3.09053e+06
3.08091e+06
3.07133e+06
3.0618e+06
3.05231e+06
3.04289e+06
3.03353e+06
3.02424e+06
3.01504e+06
3.00592e+06
2.9969e+06
2.98797e+06
2.97911e+06
2.97033e+06
2.96167e+06
2.95319e+06
2.94494e+06
2.93693e+06
2.92921e+06
2.9218e+06
2.91474e+06
2.90803e+06
2.90174e+06
2.89591e+06
2.89064e+06
2.88604e+06
2.88225e+06
2.8794e+06
2.8777e+06
2.87742e+06
2.87817e+06
2.87822e+06
2.87474e+06
)
;

boundaryField
{
    sideLeft
    {
        type            symmetryPlane;
    }
    sideRight
    {
        type            calculated;
        value           uniform 2.86903e+06;
    }
    topbottom
    {
        type            empty;
    }
    frontback
    {
        type            empty;
    }
}


// ************************************************************************* //
