/*--------------------------------*- C++ -*----------------------------------*\
| =========                 |                                                 |
| \\      /  F ield         | OpenFOAM: The Open Source CFD Toolbox           |
|  \\    /   O peration     | Version:  2.4.0                                 |
|   \\  /    A nd           | Web:      www.OpenFOAM.org                      |
|    \\/     M anipulation  |                                                 |
\*---------------------------------------------------------------------------*/
FoamFile
{
    version     2.0;
    format      ascii;
    class       volScalarField;
    location    "0.16";
    object      T.air;
}
// * * * * * * * * * * * * * * * * * * * * * * * * * * * * * * * * * * * * * //

dimensions      [0 0 0 1 0 0 0];

internalField   nonuniform List<scalar> 
1000
(
300
300
300
300
300
300
300
300
300
300
300
300
300
300
300
300
300
300
300
300
300
300
300
300
300
300
300
300
300
300
300
300
300
300
300
300
300
300
300
300
300
300
300
300
300
300
300
300
300
300
300
300
300
300
300
300
300
300
300
300
300
300
300
300
300
300
300
300
300
300
300
300
300
300
300
300
300
300
300
300
300
300
300
300
300
300
300
300
300
300
300
300
300
300
300
300
300
300
300
300
300
300
300
300
300
300
300
300
300
300
300
300
300
300
300
300
300
300
300
300
300
300
300
300
300
300
300
300
300
300
300
300
300
300
300
300
300
300
300
300
300
300
300
300
300
300
300
300
300
300
300
300
300
300
300
300
300
300
300
300
300
300
300
300
300
300
300
300
300
300
300
300
300
300
300
300
300
300
300
300
300
300
300
300
300
300
300
300
300
300
300
300
300
300
300
300
300
300
300
300
300
300
300
300
300
300
300
300
300
300
300
300
300
300
300
300
300
300
300
300
300
300
300
300
300
300
300
300
300
300
300
300
300
300
300
300
300
300
300
300
300
300
300
300
300
300
300
300
300
300
300
300
300
300
300
300
300
300
300
300
300
300
300
300
300
300
300
300
300
300
300
300
300
300
300
300
300
300
300
300
300
300
300
300
300
300
300
300
300
300
300
300
300
300
300
300
300
300
300
300
300
300
300
300
300
300
300
300
300
300
300
300
300
300
300
300
300
300
300
300
300
300
300
300
300
300
300
300
300
300
300
300
300
300
300
300
300
300
300
300
300
300
300
300
300
300
300
300
300
300
300
300
300
300
300
300
300
300
300
300
300
300
300
300
300
300
300
300
300
300
300
300
300
300
300
300
300
300
300
300
300
300
300
300
300
300
300
300
300
300
300
300
300
300
300
300
300
300
300
300
300
300
300
300
300
300
300
300
300
300
300
300
300
300
300
300
300
300
300
300
300
300
300
300
300
300
300
300
300
300
300
300
300
300
300
300
300
300
300
300
300
300
300
300
300
300
300
300
300
300
300
300
300
300
300
300
300
300
300
300
300
300
300
300
300
300
300
300
300
300
300
300
300
300
300
299.999
299.999
299.999
299.999
299.999
299.998
299.998
299.998
299.997
299.996
299.996
299.995
299.994
299.992
299.991
299.989
299.987
299.985
299.982
299.979
299.975
299.971
299.966
299.961
299.955
299.948
299.941
299.932
299.923
299.913
299.902
299.89
299.877
299.862
299.847
299.83
299.813
299.793
299.773
299.751
299.729
299.704
299.679
299.652
299.624
299.595
299.565
299.533
299.501
299.467
299.432
299.396
299.359
299.321
299.282
299.242
299.202
299.16
299.118
299.075
299.032
298.988
298.943
298.898
298.852
298.805
298.759
298.712
298.664
298.616
298.568
298.519
298.47
298.421
298.372
298.322
298.273
298.223
298.173
298.122
298.072
298.021
297.971
297.92
297.869
297.818
297.767
297.715
297.664
297.613
297.561
297.509
297.458
297.406
297.354
297.302
297.25
297.198
297.146
297.094
297.042
296.99
296.937
296.885
296.832
296.78
296.727
296.674
296.622
296.569
296.516
296.463
296.41
296.357
296.304
296.25
296.197
296.144
296.09
296.036
295.983
295.929
295.875
295.821
295.767
295.713
295.659
295.605
295.551
295.497
295.442
295.388
295.333
295.278
295.224
295.169
295.114
295.059
295.004
294.948
294.893
294.838
294.782
294.727
294.671
294.616
294.56
294.504
294.448
294.392
294.336
294.28
294.224
294.167
294.111
294.054
293.998
293.941
293.884
293.827
293.77
293.713
293.656
293.599
293.542
293.484
293.427
293.369
293.311
293.254
293.196
293.138
293.08
293.022
292.964
292.905
292.847
292.789
292.73
292.672
292.613
292.554
292.495
292.436
292.377
292.318
292.259
292.199
292.14
292.08
292.02
291.961
291.901
291.841
291.781
291.721
291.66
291.6
291.54
291.479
291.418
291.357
291.297
291.236
291.175
291.113
291.052
290.991
290.929
290.867
290.806
290.744
290.682
290.62
290.558
290.495
290.433
290.37
290.308
290.245
290.182
290.119
290.056
289.993
289.929
289.866
289.802
289.739
289.675
289.611
289.547
289.482
289.418
289.354
289.289
289.224
289.16
289.095
289.029
288.964
288.899
288.833
288.768
288.702
288.636
288.57
288.504
288.437
288.371
288.304
288.237
288.171
288.103
288.036
287.969
287.901
287.834
287.766
287.698
287.63
287.562
287.493
287.424
287.356
287.287
287.218
287.148
287.079
287.009
286.94
286.87
286.8
286.729
286.659
286.588
286.517
286.446
286.375
286.304
286.232
286.16
286.088
286.016
285.944
285.872
285.798
285.726
285.651
285.58
285.503
285.435
285.354
285.289
285.202
285.143
285.05
284.996
284.897
284.846
284.745
284.694
284.593
284.542
284.439
284.388
284.285
284.233
284.129
284.077
283.973
283.92
283.815
283.762
283.657
283.603
283.497
283.442
283.338
283.278
283.179
283.11
283.021
282.942
282.859
282.776
282.693
282.611
282.522
282.446
282.351
282.278
282.179
282.109
282.006
281.938
281.831
281.765
281.655
281.59
281.478
281.413
281.299
281.234
281.118
281.054
280.936
280.872
280.751
280.687
280.564
280.501
280.375
280.312
280.185
280.121
279.993
279.928
279.798
279.732
279.6
279.533
279.4
279.333
279.197
279.129
278.992
278.922
278.783
278.713
278.571
278.5
278.356
278.283
278.137
278.064
277.915
277.84
277.689
277.612
277.459
277.381
277.224
277.144
276.984
276.903
276.74
276.657
276.49
276.405
276.234
276.147
275.973
275.883
275.704
275.612
275.428
275.334
275.144
275.047
274.852
274.751
274.549
274.445
274.237
274.129
273.912
273.799
273.573
273.456
273.22
273.097
272.849
272.719
272.459
272.322
272.046
271.902
271.61
271.457
271.148
270.987
270.661
270.492
270.152
269.98
269.57
268.986
268.502
267.936
267.453
266.906
266.422
265.886
265.392
264.855
264.344
263.794
263.261
262.694
262.138
261.553
260.974
260.373
259.773
259.159
258.539
257.914
257.274
256.64
255.981
255.338
254.66
254.006
253.312
252.643
251.934
251.252
250.526
249.833
249.088
248.389
247.62
246.919
246.124
245.425
244.604
243.904
243.062
242.355
241.501
240.778
239.924
239.172
238.33
237.539
236.72
235.882
235.09
234.207
233.436
232.52
231.755
230.824
230.046
229.123
228.309
227.417
226.548
225.7
224.772
223.966
222.993
222.205
221.224
220.411
219.468
218.591
217.716
216.762
215.952
214.948
214.157
213.163
212.337
211.401
210.516
209.633
208.727
207.848
206.976
206.052
205.27
204.258
203.597
202.523
201.944
200.865
200.331
199.298
198.772
197.697
197.352
196.599
196.862
197.49
)
;

boundaryField
{
    sideLeft
    {
        type            symmetryPlane;
    }
    sideRight
    {
        type            zeroGradient;
    }
    topbottom
    {
        type            empty;
    }
    frontback
    {
        type            empty;
    }
}


// ************************************************************************* //
