/*--------------------------------*- C++ -*----------------------------------*\
| =========                 |                                                 |
| \\      /  F ield         | OpenFOAM: The Open Source CFD Toolbox           |
|  \\    /   O peration     | Version:  2.4.0                                 |
|   \\  /    A nd           | Web:      www.OpenFOAM.org                      |
|    \\/     M anipulation  |                                                 |
\*---------------------------------------------------------------------------*/
FoamFile
{
    version     2.0;
    format      ascii;
    class       volScalarField;
    location    "0.16";
    object      T.water;
}
// * * * * * * * * * * * * * * * * * * * * * * * * * * * * * * * * * * * * * //

dimensions      [0 0 0 1 0 0 0];

internalField   nonuniform List<scalar> 
1000
(
300
300
300
300
300
300
300
300
300
300
300
300
300
300
300
300
300
300
300
300
300
300
300
300
300
300
300
300
300
300
300
300
300
300
300
300
300
300
300
300
300
300
300
300
300
300
300
300
300
300
300
300
300
300
300
300
300
300
300
300
300
300
300
300
300
300
300
300
300
300
300
300
300
300
300
300
300
300
300
300
300
300
300
300
300
300
300
300
300
300
300
300
300
300
300
300
300
300
300
300
300
300
300
300
300
300
300
300
300
300
300
300
300
300
300
300
300
300
300
300
300
300
300
300
300
300
300
300
300
300
300
300
300
300
300
300
300
300
300
300
300
300
300
300
300
300
300
300
300
300
300
300
300
300
300
300
300
300
300
300
300
300
300
300
300
300
300
300
300
300
300
300
300
300
300
300
300
300
300
300
300
300
300
300
300
300
300
300
300
300
300
300
300
300
300
300
300
300
300
300
300
300
300
300
300
300
300
300
300
300
300
300
300
300
300
300
300
300
300
300
300
300
300
300
300
300
300
300
300
300
300
300
300
300
300
300
300
300
300
300
300
300
300
300
300
300
300
300
300
300
300
300
300
300
300
300
300
300
300
300
300
300
300
300
300
300
300
300
300
300
300
300
300
300
300
300
300
300
300
300
300
300
300
300
300
300
300
300
300
300
300
300
300
300
300
300
300
300
300
300
300
300
300
300
300
300
300
300
300
300
300
300
300
300
300
300
300
300
300
300
300
300
300
300
300
300
300
300
300
300
300
300
300
300
300
300
300
300
300
300
300
300
300
300
300
300
300
300
300
300
300
300
300
300
300
300
300
300
300
300
300
300
300
300
300
300
300
300
300
300
300
300
300
300
300
300
300
300
300
300
300
300
300
300
300
300
300
300
300
300
300
300
300
300
300
300
300
300
300
300
300
300
300
300
300
300
300
300
300
300
300
300
300
300
300
300
300
300
300
300
300
300
300
300
300
300
300
300
300
300
300
300
300
300
300
300
300
300
300
300
300
300
300
300
300
300
300
300
300
300
300
300
300
300
300
300
300
300
300
300
300
300
300
300
300
300
300
300
300
300
300
300
300
300
300
299.999
299.999
299.999
299.999
299.999
299.998
299.998
299.997
299.997
299.996
299.995
299.994
299.993
299.992
299.99
299.989
299.986
299.984
299.981
299.978
299.974
299.97
299.965
299.959
299.953
299.946
299.938
299.93
299.92
299.91
299.899
299.886
299.873
299.858
299.842
299.825
299.807
299.788
299.767
299.745
299.722
299.697
299.671
299.644
299.616
299.587
299.556
299.524
299.491
299.457
299.422
299.386
299.349
299.31
299.271
299.231
299.191
299.149
299.107
299.064
299.02
298.976
298.931
298.886
298.84
298.794
298.747
298.7
298.652
298.604
298.556
298.507
298.459
298.409
298.36
298.311
298.261
298.211
298.161
298.111
298.06
298.01
297.959
297.908
297.857
297.806
297.755
297.704
297.653
297.601
297.55
297.498
297.447
297.395
297.343
297.292
297.24
297.188
297.136
297.084
297.031
296.979
296.927
296.875
296.822
296.77
296.717
296.664
296.612
296.559
296.506
296.453
296.4
296.347
296.294
296.241
296.187
296.134
296.081
296.027
295.973
295.92
295.866
295.812
295.758
295.704
295.65
295.596
295.542
295.487
295.433
295.379
295.324
295.269
295.215
295.16
295.105
295.05
294.995
294.94
294.885
294.829
294.774
294.718
294.663
294.607
294.552
294.496
294.44
294.384
294.328
294.272
294.215
294.159
294.103
294.046
293.99
293.933
293.876
293.819
293.762
293.705
293.648
293.591
293.534
293.477
293.419
293.362
293.304
293.246
293.188
293.131
293.073
293.015
292.956
292.898
292.84
292.781
292.723
292.664
292.606
292.547
292.488
292.429
292.37
292.311
292.252
292.192
292.133
292.073
292.014
291.954
291.894
291.834
291.774
291.714
291.654
291.593
291.533
291.472
291.412
291.351
291.29
291.229
291.168
291.107
291.046
290.984
290.923
290.861
290.8
290.738
290.676
290.614
290.552
290.489
290.427
290.364
290.302
290.239
290.176
290.113
290.05
289.987
289.924
289.86
289.797
289.733
289.669
289.605
289.541
289.477
289.413
289.348
289.284
289.219
289.154
289.089
289.024
288.959
288.894
288.828
288.762
288.697
288.631
288.565
288.499
288.432
288.366
288.299
288.232
288.166
288.098
288.031
287.964
287.896
287.829
287.761
287.693
287.625
287.557
287.488
287.42
287.351
287.282
287.213
287.144
287.074
287.005
286.935
286.865
286.795
286.725
286.654
286.584
286.513
286.442
286.371
286.299
286.228
286.156
286.084
286.012
285.939
285.867
285.794
285.722
285.647
285.576
285.499
285.431
285.35
285.285
285.198
285.139
285.046
284.992
284.893
284.842
284.741
284.69
284.589
284.538
284.435
284.384
284.281
284.229
284.126
284.073
283.969
283.917
283.812
283.759
283.653
283.6
283.493
283.438
283.334
283.274
283.176
283.107
283.018
282.939
282.856
282.772
282.689
282.608
282.519
282.442
282.348
282.275
282.176
282.106
282.003
281.935
281.828
281.762
281.652
281.587
281.475
281.41
281.296
281.231
281.115
281.051
280.933
280.869
280.748
280.685
280.561
280.498
280.373
280.309
280.183
280.118
279.99
279.925
279.795
279.729
279.597
279.531
279.397
279.33
279.195
279.126
278.989
278.92
278.781
278.71
278.569
278.497
278.354
278.281
278.135
278.061
277.913
277.838
277.687
277.61
277.456
277.378
277.222
277.142
276.982
276.901
276.738
276.655
276.488
276.403
276.232
276.145
275.971
275.881
275.702
275.61
275.426
275.332
275.142
275.045
274.85
274.749
274.548
274.444
274.235
274.127
273.91
273.797
273.572
273.454
273.218
273.095
272.847
272.718
272.457
272.32
272.045
271.9
271.609
271.455
271.147
270.985
270.66
270.491
270.151
269.978
269.569
268.985
268.501
267.935
267.452
266.905
266.421
265.885
265.392
264.854
264.343
263.793
263.26
262.693
262.137
261.552
260.973
260.372
259.772
259.158
258.538
257.913
257.273
256.639
255.98
255.337
254.659
254.005
253.311
252.642
251.933
251.251
250.525
249.832
249.087
248.387
247.619
246.918
246.123
245.423
244.602
243.903
243.06
242.354
241.5
240.776
239.922
239.17
238.328
237.537
236.718
235.88
235.088
234.205
233.434
232.517
231.753
230.822
230.043
229.12
228.306
227.414
226.545
225.697
224.768
223.962
222.99
222.201
221.22
220.407
219.464
218.587
217.711
216.757
215.946
214.942
214.151
213.157
212.33
211.394
210.509
209.625
208.719
207.84
206.967
206.042
205.26
204.248
203.585
202.512
201.931
200.857
200.324
199.288
198.766
197.679
197.32
196.583
196.849
197.489
)
;

boundaryField
{
    sideLeft
    {
        type            symmetryPlane;
    }
    sideRight
    {
        type            zeroGradient;
    }
    topbottom
    {
        type            empty;
    }
    frontback
    {
        type            empty;
    }
}


// ************************************************************************* //
