/*--------------------------------*- C++ -*----------------------------------*\
| =========                 |                                                 |
| \\      /  F ield         | OpenFOAM: The Open Source CFD Toolbox           |
|  \\    /   O peration     | Version:  2.4.0                                 |
|   \\  /    A nd           | Web:      www.OpenFOAM.org                      |
|    \\/     M anipulation  |                                                 |
\*---------------------------------------------------------------------------*/
FoamFile
{
    version     2.0;
    format      ascii;
    class       volVectorField;
    location    "0.16";
    object      U.air;
}
// * * * * * * * * * * * * * * * * * * * * * * * * * * * * * * * * * * * * * //

dimensions      [0 1 -1 0 0 0 0];

internalField   nonuniform List<vector> 
1000
(
(-1.42107e-13 0 0)
(4.26321e-14 0 0)
(1.20793e-13 0 0)
(1.56319e-13 0 0)
(-1.8474e-13 0 0)
(-1.27898e-13 0 0)
(4.2633e-14 0 0)
(-1.35003e-13 0 0)
(-7.81598e-14 0 0)
(-1.27898e-13 0 0)
(-1.27898e-13 0 0)
(6.39495e-14 0 0)
(4.26325e-13 0 0)
(6.67911e-13 0 0)
(8.24229e-13 0 0)
(7.53176e-13 0 0)
(4.47641e-13 0 0)
(2.84218e-13 0 0)
(4.61852e-13 0 0)
(3.62378e-13 0 0)
(5.75538e-13 0 0)
(5.68435e-13 0 0)
(6.25277e-13 0 0)
(4.90275e-13 0 0)
(4.33431e-13 0 0)
(2.91322e-13 0 0)
(3.19744e-13 0 0)
(4.61852e-13 0 0)
(5.18697e-13 0 0)
(6.11066e-13 0 0)
(9.2371e-14 0 0)
(8.52652e-14 0 0)
(3.69482e-13 0 0)
(3.62377e-13 0 0)
(1.98951e-13 0 0)
(-1.49212e-13 0 0)
(1.42092e-14 0 0)
(-6.39477e-14 0 0)
(-1.98953e-13 0 0)
(-3.12638e-13 0 0)
(-3.69483e-13 0 0)
(-5.68431e-14 0 0)
(8.5265e-14 0 0)
(2.84219e-14 0 0)
(-2.41585e-13 0 0)
(-2.4869e-13 0 0)
(-7.81596e-14 0 0)
(-7.81599e-14 0 0)
(-2.84217e-13 0 0)
(-3.05534e-13 0 0)
(-1.63425e-13 0 0)
(-2.55796e-13 0 0)
(-4.9738e-13 0 0)
(-5.7554e-13 0 0)
(-2.41584e-13 0 0)
(-9.94762e-14 0 0)
(9.9476e-14 0 0)
(-2.79986e-19 0 0)
(-5.68431e-14 0 0)
(1.84741e-13 0 0)
(4.19221e-13 0 0)
(3.41059e-13 0 0)
(3.33955e-13 0 0)
(2.27374e-13 0 0)
(2.13162e-13 0 0)
(4.97384e-14 0 0)
(-1.27898e-13 0 0)
(-4.1922e-13 0 0)
(-6.11067e-13 0 0)
(-4.33431e-13 0 0)
(-4.12114e-13 0 0)
(-4.12115e-13 0 0)
(-5.32907e-13 0 0)
(-6.18173e-13 0 0)
(-6.82121e-13 0 0)
(-5.40012e-13 0 0)
(-5.32908e-13 0 0)
(-7.67386e-13 0 0)
(-7.88702e-13 0 0)
(-8.02913e-13 0 0)
(-9.166e-13 0 0)
(-8.59757e-13 0 0)
(-8.59756e-13 0 0)
(-9.8055e-13 0 0)
(-1.10845e-12 0 0)
(-6.96333e-13 0 0)
(-6.6791e-13 0 0)
(-6.46594e-13 0 0)
(-4.54747e-13 0 0)
(-1.06581e-13 0 0)
(8.52649e-14 0 0)
(1.06581e-13 0 0)
(1.20792e-13 0 0)
(-1.20792e-13 0 0)
(-1.20792e-13 0 0)
(7.8159e-14 0 0)
(4.97391e-14 0 0)
(1.98951e-13 0 0)
(2.62902e-13 0 0)
(4.83169e-13 0 0)
(4.40537e-13 0 0)
(2.91322e-13 0 0)
(2.13165e-14 0 0)
(-4.26329e-14 0 0)
(1.98952e-13 0 0)
(3.19744e-13 0 0)
(3.76587e-13 0 0)
(4.9738e-13 0 0)
(4.0501e-13 0 0)
(4.12114e-13 0 0)
(4.33432e-13 0 0)
(3.62376e-13 0 0)
(4.76064e-13 0 0)
(5.68434e-13 0 0)
(7.95808e-13 0 0)
(8.2423e-13 0 0)
(7.4607e-13 0 0)
(8.88179e-13 0 0)
(9.52127e-13 0 0)
(6.46595e-13 0 0)
(7.95807e-13 0 0)
(5.82646e-13 0 0)
(2.27373e-13 0 0)
(-7.10479e-15 0 0)
(-9.23713e-14 0 0)
(-2.84216e-13 0 0)
(-2.41585e-13 0 0)
(-1.49213e-13 0 0)
(1.20791e-13 0 0)
(3.55273e-13 0 0)
(3.05532e-13 0 0)
(1.77637e-13 0 0)
(5.32907e-13 0 0)
(4.8317e-13 0 0)
(4.40536e-13 0 0)
(5.04486e-13 0 0)
(1.84741e-13 0 0)
(2.84216e-14 0 0)
(7.81597e-14 0 0)
(-4.26328e-14 0 0)
(-2.98428e-13 0 0)
(-2.20269e-13 0 0)
(-3.55265e-14 0 0)
(7.10474e-15 0 0)
(-2.06056e-13 0 0)
(7.10467e-15 0 0)
(1.77636e-13 0 0)
(-7.10554e-15 0 0)
(-2.41585e-13 0 0)
(-5.68435e-14 0 0)
(-1.7053e-13 0 0)
(1.27898e-13 0 0)
(2.2134e-19 0 0)
(-1.42109e-13 0 0)
(1.42109e-14 0 0)
(3.55265e-14 0 0)
(-1.8474e-13 0 0)
(-8.52657e-14 0 0)
(-1.27897e-13 0 0)
(-2.27374e-13 0 0)
(-4.54746e-13 0 0)
(-3.97905e-13 0 0)
(-2.98427e-13 0 0)
(-3.62377e-13 0 0)
(-3.55271e-13 0 0)
(-3.55272e-13 0 0)
(-1.35002e-13 0 0)
(9.9475e-14 0 0)
(4.68959e-13 0 0)
(7.81597e-13 0 0)
(5.68434e-13 0 0)
(7.81597e-13 0 0)
(1.02318e-12 0 0)
(1.12976e-12 0 0)
(1.00897e-12 0 0)
(1.14397e-12 0 0)
(7.67387e-13 0 0)
(7.10542e-13 0 0)
(8.59757e-13 0 0)
(6.75016e-13 0 0)
(7.17648e-13 0 0)
(7.88703e-13 0 0)
(7.38964e-13 0 0)
(5.6133e-13 0 0)
(6.32382e-13 0 0)
(7.88704e-13 0 0)
(5.18695e-13 0 0)
(5.68453e-14 0 0)
(3.55255e-14 0 0)
(7.10692e-15 0 0)
(5.68419e-14 0 0)
(4.97394e-14 0 0)
(3.12637e-13 0 0)
(4.33432e-13 0 0)
(4.83168e-13 0 0)
(1.91847e-13 0 0)
(2.77111e-13 0 0)
(-1.42105e-14 0 0)
(3.83692e-13 0 0)
(1.70531e-13 0 0)
(1.63424e-13 0 0)
(7.10685e-15 0 0)
(4.54746e-13 0 0)
(4.90275e-13 0 0)
(6.18172e-13 0 0)
(9.166e-13 0 0)
(1.07292e-12 0 0)
(1.00187e-12 0 0)
(9.166e-13 0 0)
(1.20082e-12 0 0)
(1.45661e-12 0 0)
(1.80478e-12 0 0)
(1.93268e-12 0 0)
(1.99662e-12 0 0)
(1.79767e-12 0 0)
(1.93268e-12 0 0)
(1.93268e-12 0 0)
(1.99663e-12 0 0)
(2.07478e-12 0 0)
(2.08189e-12 0 0)
(2.06768e-12 0 0)
(1.98952e-12 0 0)
(2.05347e-12 0 0)
(2.01084e-12 0 0)
(1.76215e-12 0 0)
(1.60583e-12 0 0)
(1.68399e-12 0 0)
(1.78346e-12 0 0)
(1.4424e-12 0 0)
(1.49214e-12 0 0)
(1.38556e-12 0 0)
(1.26477e-12 0 0)
(1.22924e-12 0 0)
(1.19371e-12 0 0)
(8.59758e-13 0 0)
(7.17647e-13 0 0)
(7.10544e-13 0 0)
(1.02318e-12 0 0)
(1.1795e-12 0 0)
(1.08002e-12 0 0)
(6.03961e-13 0 0)
(1.7053e-13 0 0)
(1.42109e-13 0 0)
(-7.10626e-15 0 0)
(3.55275e-14 0 0)
(2.55795e-13 0 0)
(5.40012e-13 0 0)
(5.96856e-13 0 0)
(7.67386e-13 0 0)
(5.32907e-13 0 0)
(2.87448e-19 0 0)
(-7.10546e-14 0 0)
(-2.13165e-14 0 0)
(4.97385e-14 0 0)
(3.33954e-13 0 0)
(5.47119e-13 0 0)
(2.70005e-13 0 0)
(2.27374e-13 0 0)
(2.41584e-13 0 0)
(2.13164e-13 0 0)
(5.68424e-14 0 0)
(-1.06581e-13 0 0)
(-2.77112e-13 0 0)
(-2.20268e-13 0 0)
(4.81178e-19 0 0)
(-6.39497e-14 0 0)
(-7.10528e-14 0 0)
(8.52636e-14 0 0)
(-4.2631e-14 0 0)
(2.13147e-14 0 0)
(-5.68422e-14 0 0)
(7.10531e-14 0 0)
(7.81605e-14 0 0)
(7.10516e-15 0 0)
(-1.06581e-13 0 0)
(-4.26333e-14 0 0)
(1.98953e-13 0 0)
(9.23695e-14 0 0)
(-1.421e-14 0 0)
(3.33955e-13 0 0)
(4.40537e-13 0 0)
(2.41584e-13 0 0)
(2.20268e-13 0 0)
(1.91848e-13 0 0)
(2.84216e-13 0 0)
(2.70007e-13 0 0)
(3.83693e-13 0 0)
(5.61329e-13 0 0)
(4.26325e-13 0 0)
(6.11067e-13 0 0)
(4.26325e-13 0 0)
(2.62901e-13 0 0)
(3.90798e-13 0 0)
(1.70531e-13 0 0)
(1.8474e-13 0 0)
(7.81602e-14 0 0)
(1.42109e-13 0 0)
(1.13687e-13 0 0)
(1.20792e-13 0 0)
(1.5632e-13 0 0)
(3.69481e-13 0 0)
(2.62902e-13 0 0)
(4.40536e-13 0 0)
(4.05009e-13 0 0)
(5.25802e-13 0 0)
(5.8975e-13 0 0)
(6.60805e-13 0 0)
(4.54747e-13 0 0)
(4.61853e-13 0 0)
(3.33956e-13 0 0)
(2.629e-13 0 0)
(9.23711e-14 0 0)
(4.97378e-14 0 0)
(3.62377e-13 0 0)
(7.67386e-13 0 0)
(9.45022e-13 0 0)
(9.87654e-13 0 0)
(8.59757e-13 0 0)
(6.82121e-13 0 0)
(5.04485e-13 0 0)
(3.83693e-13 0 0)
(6.75016e-13 0 0)
(8.66862e-13 0 0)
(7.17648e-13 0 0)
(7.24753e-13 0 0)
(8.59757e-13 0 0)
(6.6791e-13 0 0)
(5.04485e-13 0 0)
(5.54224e-13 0 0)
(7.10543e-13 0 0)
(6.46594e-13 0 0)
(8.66862e-13 0 0)
(6.46595e-13 0 0)
(4.12114e-13 0 0)
(1.27899e-13 0 0)
(3.55261e-14 0 0)
(-9.94754e-14 0 0)
(-4.1922e-13 0 0)
(-5.89751e-13 0 0)
(-4.05009e-13 0 0)
(-4.26326e-13 0 0)
(-1.84741e-13 0 0)
(-7.10547e-14 0 0)
(-2.91322e-13 0 0)
(-4.26334e-14 0 0)
(-1.63424e-13 0 0)
(7.1053e-14 0 0)
(1.06582e-13 0 0)
(1.91846e-13 0 0)
(6.39491e-14 0 0)
(9.23704e-14 0 0)
(2.98428e-13 0 0)
(2.629e-13 0 0)
(4.61854e-13 0 0)
(8.31334e-13 0 0)
(8.2423e-13 0 0)
(9.87654e-13 0 0)
(1.08003e-12 0 0)
(1.1795e-12 0 0)
(9.9476e-13 0 0)
(6.60805e-13 0 0)
(4.54747e-13 0 0)
(5.25802e-13 0 0)
(4.40536e-13 0 0)
(2.70006e-13 0 0)
(2.13162e-13 0 0)
(-4.26316e-14 0 0)
(1.63424e-13 0 0)
(7.81603e-14 0 0)
(-1.91847e-13 0 0)
(-5.1159e-13 0 0)
(-4.90275e-13 0 0)
(-5.61328e-13 0 0)
(-2.06058e-13 0 0)
(1.35004e-13 0 0)
(5.68429e-14 0 0)
(1.20793e-13 0 0)
(9.9475e-14 0 0)
(1.35004e-13 0 0)
(-1.42119e-14 0 0)
(-4.97372e-14 0 0)
(-2.13163e-13 0 0)
(-5.40012e-13 0 0)
(-3.97904e-13 0 0)
(-3.48166e-13 0 0)
(-4.19219e-13 0 0)
(-3.76589e-13 0 0)
(-2.98427e-13 0 0)
(-2.70007e-13 0 0)
(-5.18696e-13 0 0)
(-4.90275e-13 0 0)
(-4.26325e-13 0 0)
(-3.90799e-13 0 0)
(-4.47641e-13 0 0)
(-3.97905e-13 0 0)
(-5.8975e-13 0 0)
(-7.10543e-13 0 0)
(-5.75539e-13 0 0)
(-6.25278e-13 0 0)
(-5.40012e-13 0 0)
(-5.96856e-13 0 0)
(-5.68435e-13 0 0)
(-5.82644e-13 0 0)
(-2.27375e-13 0 0)
(-1.91846e-13 0 0)
(-7.10549e-15 0 0)
(1.63425e-13 0 0)
(3.05533e-13 0 0)
(3.55272e-13 0 0)
(7.67386e-13 0 0)
(1.52056e-12 0 0)
(2.10321e-12 0 0)
(2.8848e-12 0 0)
(4.19931e-12 0 0)
(5.92593e-12 0 0)
(8.56204e-12 0 0)
(1.22711e-11 0 0)
(1.75717e-11 0 0)
(2.49898e-11 0 0)
(3.65858e-11 0 0)
(5.3781e-11 0 0)
(8.00142e-11 0 0)
(1.1962e-10 0 0)
(1.78936e-10 0 0)
(2.67384e-10 0 0)
(3.99254e-10 0 0)
(5.9498e-10 0 0)
(8.84107e-10 0 0)
(1.31006e-09 0 0)
(1.9358e-09 0 0)
(2.85198e-09 0 0)
(4.189e-09 0 0)
(6.13437e-09 0 0)
(8.9556e-09 0 0)
(1.30343e-08 0 0)
(1.89122e-08 0 0)
(2.73563e-08 0 0)
(3.94483e-08 0 0)
(5.6708e-08 0 0)
(8.12634e-08 0 0)
(1.16085e-07 0 0)
(1.65305e-07 0 0)
(2.34646e-07 0 0)
(3.3201e-07 0 0)
(4.68268e-07 0 0)
(6.58316e-07 0 0)
(9.22496e-07 0 0)
(1.28848e-06 0 0)
(1.79377e-06 0 0)
(2.48899e-06 0 0)
(3.44224e-06 0 0)
(4.74473e-06 0 0)
(6.51821e-06 0 0)
(8.92449e-06 0 0)
(1.21778e-05 0 0)
(1.65606e-05 0 0)
(2.2444e-05 0 0)
(3.03132e-05 0 0)
(4.08003e-05 0 0)
(5.4725e-05 0 0)
(7.31463e-05 0 0)
(9.74261e-05 0 0)
(0.000129308 0 0)
(0.000171016 0 0)
(0.000225372 0 0)
(0.000295943 0 0)
(0.000387214 0 0)
(0.000504804 0 0)
(0.000655713 0 0)
(0.000848627 0 0)
(0.00109427 0 0)
(0.00140581 0 0)
(0.00179936 0 0)
(0.0022945 0 0)
(0.00291494 0 0)
(0.00368924 0 0)
(0.00465158 0 0)
(0.0058427 0 0)
(0.00731085 0 0)
(0.00911292 0 0)
(0.0113155 0 0)
(0.0139963 0 0)
(0.0172452 0 0)
(0.0211657 0 0)
(0.0258763 0 0)
(0.0315116 0 0)
(0.0382238 0 0)
(0.0461838 0 0)
(0.0555821 0 0)
(0.0666297 0 0)
(0.0795586 0 0)
(0.0946222 0 0)
(0.112095 0 0)
(0.132273 0 0)
(0.155472 0 0)
(0.182024 0 0)
(0.212282 0 0)
(0.246611 0 0)
(0.285387 0 0)
(0.328996 0 0)
(0.377829 0 0)
(0.432277 0 0)
(0.492728 0 0)
(0.559563 0 0)
(0.633151 0 0)
(0.713844 0 0)
(0.801972 0 0)
(0.897844 0 0)
(1.00173 0 0)
(1.11389 0 0)
(1.23452 0 0)
(1.3638 0 0)
(1.50187 0 0)
(1.64881 0 0)
(1.80468 0 0)
(1.96949 0 0)
(2.14321 0 0)
(2.32577 0 0)
(2.51708 0 0)
(2.71698 0 0)
(2.9253 0 0)
(3.14185 0 0)
(3.36639 0 0)
(3.59866 0 0)
(3.83839 0 0)
(4.08529 0 0)
(4.33904 0 0)
(4.59933 0 0)
(4.86584 0 0)
(5.13823 0 0)
(5.41616 0 0)
(5.6993 0 0)
(5.98733 0 0)
(6.27991 0 0)
(6.57672 0 0)
(6.87744 0 0)
(7.18179 0 0)
(7.48946 0 0)
(7.80016 0 0)
(8.11364 0 0)
(8.42964 0 0)
(8.74791 0 0)
(9.06822 0 0)
(9.39036 0 0)
(9.71413 0 0)
(10.0393 0 0)
(10.3658 0 0)
(10.6934 0 0)
(11.0219 0 0)
(11.3512 0 0)
(11.6813 0 0)
(12.0119 0 0)
(12.343 0 0)
(12.6744 0 0)
(13.0062 0 0)
(13.3382 0 0)
(13.6703 0 0)
(14.0026 0 0)
(14.3349 0 0)
(14.6671 0 0)
(14.9994 0 0)
(15.3316 0 0)
(15.6637 0 0)
(15.9956 0 0)
(16.3274 0 0)
(16.6591 0 0)
(16.9906 0 0)
(17.3219 0 0)
(17.653 0 0)
(17.9839 0 0)
(18.3146 0 0)
(18.6451 0 0)
(18.9754 0 0)
(19.3056 0 0)
(19.6355 0 0)
(19.9652 0 0)
(20.2948 0 0)
(20.6242 0 0)
(20.9534 0 0)
(21.2824 0 0)
(21.6113 0 0)
(21.94 0 0)
(22.2686 0 0)
(22.597 0 0)
(22.9253 0 0)
(23.2535 0 0)
(23.5816 0 0)
(23.9096 0 0)
(24.2374 0 0)
(24.5652 0 0)
(24.8929 0 0)
(25.2205 0 0)
(25.5481 0 0)
(25.8756 0 0)
(26.203 0 0)
(26.5304 0 0)
(26.8578 0 0)
(27.1851 0 0)
(27.5124 0 0)
(27.8397 0 0)
(28.1669 0 0)
(28.4942 0 0)
(28.8215 0 0)
(29.1488 0 0)
(29.4761 0 0)
(29.8034 0 0)
(30.1307 0 0)
(30.4581 0 0)
(30.7855 0 0)
(31.1129 0 0)
(31.4404 0 0)
(31.768 0 0)
(32.0956 0 0)
(32.4232 0 0)
(32.751 0 0)
(33.0787 0 0)
(33.4066 0 0)
(33.7345 0 0)
(34.0626 0 0)
(34.3906 0 0)
(34.7188 0 0)
(35.0471 0 0)
(35.3755 0 0)
(35.7039 0 0)
(36.0325 0 0)
(36.3611 0 0)
(36.6899 0 0)
(37.0187 0 0)
(37.3477 0 0)
(37.6768 0 0)
(38.006 0 0)
(38.3353 0 0)
(38.6647 0 0)
(38.9942 0 0)
(39.3239 0 0)
(39.6537 0 0)
(39.9836 0 0)
(40.3136 0 0)
(40.6438 0 0)
(40.9742 0 0)
(41.3046 0 0)
(41.6352 0 0)
(41.966 0 0)
(42.2969 0 0)
(42.6279 0 0)
(42.9591 0 0)
(43.2905 0 0)
(43.622 0 0)
(43.9537 0 0)
(44.2856 0 0)
(44.6176 0 0)
(44.9499 0 0)
(45.2823 0 0)
(45.6149 0 0)
(45.9477 0 0)
(46.2806 0 0)
(46.6138 0 0)
(46.9472 0 0)
(47.2808 0 0)
(47.6146 0 0)
(47.9487 0 0)
(48.2829 0 0)
(48.6174 0 0)
(48.9521 0 0)
(49.2871 0 0)
(49.6223 0 0)
(49.9578 0 0)
(50.2935 0 0)
(50.6294 0 0)
(50.9656 0 0)
(51.3021 0 0)
(51.6389 0 0)
(51.9759 0 0)
(52.3133 0 0)
(52.6509 0 0)
(52.9888 0 0)
(53.327 0 0)
(53.6655 0 0)
(54.0043 0 0)
(54.3434 0 0)
(54.6828 0 0)
(55.0225 0 0)
(55.3626 0 0)
(55.703 0 0)
(56.0437 0 0)
(56.3848 0 0)
(56.7262 0 0)
(57.0679 0 0)
(57.41 0 0)
(57.7525 0 0)
(58.0953 0 0)
(58.4384 0 0)
(58.782 0 0)
(59.1259 0 0)
(59.4702 0 0)
(59.8148 0 0)
(60.1599 0 0)
(60.5053 0 0)
(60.8512 0 0)
(61.1974 0 0)
(61.5441 0 0)
(61.8911 0 0)
(62.2386 0 0)
(62.5865 0 0)
(62.9348 0 0)
(63.2835 0 0)
(63.6327 0 0)
(63.9823 0 0)
(64.3324 0 0)
(64.6829 0 0)
(65.0339 0 0)
(65.3853 0 0)
(65.7372 0 0)
(66.0896 0 0)
(66.4425 0 0)
(66.7958 0 0)
(67.1497 0 0)
(67.504 0 0)
(67.8589 0 0)
(68.2142 0 0)
(68.5701 0 0)
(68.9265 0 0)
(69.2835 0 0)
(69.6409 0 0)
(69.999 0 0)
(70.3575 0 0)
(70.7167 0 0)
(71.0764 0 0)
(71.4367 0 0)
(71.7975 0 0)
(72.159 0 0)
(72.521 0 0)
(72.8837 0 0)
(73.2469 0 0)
(73.6108 0 0)
(73.9753 0 0)
(74.3404 0 0)
(74.7062 0 0)
(75.0726 0 0)
(75.4397 0 0)
(75.8075 0 0)
(76.1759 0 0)
(76.545 0 0)
(76.9148 0 0)
(77.2853 0 0)
(77.6565 0 0)
(78.0284 0 0)
(78.401 0 0)
(78.7744 0 0)
(79.1485 0 0)
(79.5234 0 0)
(79.899 0 0)
(80.2755 0 0)
(80.6526 0 0)
(81.0306 0 0)
(81.4093 0 0)
(81.7891 0 0)
(82.1691 0 0)
(82.5509 0 0)
(82.9323 0 0)
(83.3163 0 0)
(83.6986 0 0)
(84.0854 0 0)
(84.4682 0 0)
(84.8585 0 0)
(85.2409 0 0)
(85.6358 0 0)
(86.0167 0 0)
(86.4173 0 0)
(86.7959 0 0)
(87.2032 0 0)
(87.5787 0 0)
(87.9929 0 0)
(88.3659 0 0)
(88.7861 0 0)
(89.1583 0 0)
(89.5824 0 0)
(89.9564 0 0)
(90.3813 0 0)
(90.7608 0 0)
(91.1829 0 0)
(91.5717 0 0)
(91.9869 0 0)
(92.3895 0 0)
(92.7933 0 0)
(93.2147 0 0)
(93.6018 0 0)
(94.0479 0 0)
(94.4121 0 0)
(94.8893 0 0)
(95.2255 0 0)
(95.7371 0 0)
(96.0446 0 0)
(96.5875 0 0)
(96.8737 0 0)
(97.4356 0 0)
(97.7172 0 0)
(98.2833 0 0)
(98.569 0 0)
(99.139 0 0)
(99.4256 0 0)
(100 0 0)
(100.29 0 0)
(100.868 0 0)
(101.159 0 0)
(101.743 0 0)
(102.036 0 0)
(102.624 0 0)
(102.92 0 0)
(103.513 0 0)
(103.811 0 0)
(104.408 0 0)
(104.709 0 0)
(105.312 0 0)
(105.616 0 0)
(106.224 0 0)
(106.53 0 0)
(107.143 0 0)
(107.453 0 0)
(108.072 0 0)
(108.384 0 0)
(109.009 0 0)
(109.324 0 0)
(109.956 0 0)
(110.275 0 0)
(110.912 0 0)
(111.238 0 0)
(111.872 0 0)
(112.218 0 0)
(112.836 0 0)
(113.214 0 0)
(113.809 0 0)
(114.22 0 0)
(114.797 0 0)
(115.234 0 0)
(115.801 0 0)
(116.257 0 0)
(116.818 0 0)
(117.293 0 0)
(117.849 0 0)
(118.343 0 0)
(118.894 0 0)
(119.404 0 0)
(119.958 0 0)
(120.478 0 0)
(121.039 0 0)
(121.567 0 0)
(122.137 0 0)
(122.673 0 0)
(123.251 0 0)
(123.797 0 0)
(124.384 0 0)
(124.94 0 0)
(125.536 0 0)
(126.103 0 0)
(126.708 0 0)
(127.288 0 0)
(127.902 0 0)
(128.495 0 0)
(129.12 0 0)
(129.726 0 0)
(130.364 0 0)
(130.982 0 0)
(131.635 0 0)
(132.267 0 0)
(132.934 0 0)
(133.582 0 0)
(134.264 0 0)
(134.93 0 0)
(135.628 0 0)
(136.313 0 0)
(137.03 0 0)
(137.735 0 0)
(138.472 0 0)
(139.199 0 0)
(139.959 0 0)
(140.709 0 0)
(141.496 0 0)
(142.272 0 0)
(143.088 0 0)
(143.891 0 0)
(144.742 0 0)
(145.576 0 0)
(146.465 0 0)
(147.336 0 0)
(148.265 0 0)
(149.179 0 0)
(150.152 0 0)
(151.116 0 0)
(152.136 0 0)
(153.158 0 0)
(154.229 0 0)
(155.31 0 0)
(156.436 0 0)
(157.575 0 0)
(158.756 0 0)
(159.945 0 0)
(161.171 0 0)
(162.392 0 0)
(163.632 0 0)
(164.838 0 0)
(166.03 0 0)
(167.114 0 0)
(168.131 0 0)
(169.038 0 0)
(169.879 0 0)
(170.647 0 0)
(171.372 0 0)
(172.068 0 0)
(172.75 0 0)
(173.436 0 0)
(174.127 0 0)
(174.834 0 0)
(175.558 0 0)
(176.295 0 0)
(177.051 0 0)
(177.81 0 0)
(178.585 0 0)
(179.353 0 0)
(180.13 0 0)
(180.897 0 0)
(181.666 0 0)
(182.427 0 0)
(183.182 0 0)
(183.936 0 0)
(184.678 0 0)
(185.425 0 0)
(186.159 0 0)
(186.902 0 0)
(187.633 0 0)
(188.372 0 0)
(189.102 0 0)
(189.835 0 0)
(190.562 0 0)
(191.292 0 0)
(192.012 0 0)
(192.74 0 0)
(193.449 0 0)
(194.176 0 0)
(194.871 0 0)
(195.596 0 0)
(196.276 0 0)
(196.996 0 0)
(197.667 0 0)
(198.376 0 0)
(199.045 0 0)
(199.738 0 0)
(200.406 0 0)
(201.082 0 0)
(201.751 0 0)
(202.412 0 0)
(203.078 0 0)
(203.725 0 0)
(204.385 0 0)
(205.022 0 0)
(205.674 0 0)
(206.303 0 0)
(206.945 0 0)
(207.564 0 0)
(208.195 0 0)
(208.804 0 0)
(209.423 0 0)
(210.026 0 0)
(210.63 0 0)
(211.228 0 0)
(211.811 0 0)
(212.399 0 0)
(212.962 0 0)
(213.537 0 0)
(214.085 0 0)
(214.639 0 0)
(215.176 0 0)
(215.698 0 0)
(216.231 0 0)
(216.713 0 0)
(217.235 0 0)
(217.684 0 0)
(218.178 0 0)
(218.602 0 0)
(219.049 0 0)
(219.456 0 0)
(219.849 0 0)
(220.224 0 0)
(220.572 0 0)
(220.912 0 0)
(221.196 0 0)
(221.489 0 0)
(221.703 0 0)
(221.908 0 0)
(222.028 0 0)
(222.065 0 0)
(222.092 0 0)
(222.124 0 0)
(222.132 0 0)
(222.252 0 0)
(222.192 0 0)
(221.616 0 0)
(220.423 0 0)
(217.739 0 0)
(217.252 0 0)
)
;

boundaryField
{
    sideLeft
    {
        type            symmetryPlane;
    }
    sideRight
    {
        type            myWaveTransmissive;
        phi             phi.air;
        rho             rho.air;
        psi             thermo:psi.air;
        gamma           1.4;
        fieldInf        (0 0 0);
        lInf            10;
        value           uniform (216.431 0 0);
    }
    topbottom
    {
        type            empty;
    }
    frontback
    {
        type            empty;
    }
}


// ************************************************************************* //
