/*--------------------------------*- C++ -*----------------------------------*\
| =========                 |                                                 |
| \\      /  F ield         | OpenFOAM: The Open Source CFD Toolbox           |
|  \\    /   O peration     | Version:  2.4.0                                 |
|   \\  /    A nd           | Web:      www.OpenFOAM.org                      |
|    \\/     M anipulation  |                                                 |
\*---------------------------------------------------------------------------*/
FoamFile
{
    version     2.0;
    format      ascii;
    class       volVectorField;
    location    "0.16";
    object      U.airMean;
}
// * * * * * * * * * * * * * * * * * * * * * * * * * * * * * * * * * * * * * //

dimensions      [0 1 -1 0 0 0 0];

internalField   nonuniform List<vector> 
1000
(
(-6.66303e-14 0 0)
(-3.13929e-14 0 0)
(-6.85049e-14 0 0)
(-2.55488e-14 0 0)
(-8.11613e-14 0 0)
(-1.53126e-14 0 0)
(-5.2682e-14 0 0)
(-3.76278e-14 0 0)
(-3.67173e-14 0 0)
(-3.074e-14 0 0)
(-3.39817e-14 0 0)
(-6.56539e-14 0 0)
(-1.26569e-14 0 0)
(-6.87623e-14 0 0)
(-2.5584e-15 0 0)
(-4.93646e-14 0 0)
(6.88304e-15 0 0)
(-2.93363e-14 0 0)
(2.7986e-14 0 0)
(-5.07233e-14 0 0)
(3.59262e-14 0 0)
(-4.22369e-14 0 0)
(-1.45131e-14 0 0)
(-5.40056e-14 0 0)
(-6.03339e-14 0 0)
(-6.13599e-14 0 0)
(-7.24309e-14 0 0)
(-5.77719e-14 0 0)
(-1.10955e-13 0 0)
(-4.7749e-14 0 0)
(-9.60917e-14 0 0)
(-9.03854e-14 0 0)
(-7.82664e-14 0 0)
(-1.05551e-13 0 0)
(-5.57648e-14 0 0)
(-1.40309e-13 0 0)
(-2.16591e-14 0 0)
(-1.14446e-13 0 0)
(-4.80155e-14 0 0)
(-1.07833e-13 0 0)
(-7.20539e-14 0 0)
(-1.04449e-13 0 0)
(-9.53062e-14 0 0)
(-1.031e-13 0 0)
(-8.49278e-14 0 0)
(-9.59366e-14 0 0)
(-1.05831e-13 0 0)
(-9.45422e-14 0 0)
(-1.10964e-13 0 0)
(-1.00768e-13 0 0)
(-1.13234e-13 0 0)
(-8.86316e-14 0 0)
(-9.67535e-14 0 0)
(-7.88971e-14 0 0)
(-7.5566e-14 0 0)
(-6.03031e-14 0 0)
(-6.31228e-14 0 0)
(-5.79582e-14 0 0)
(-8.4248e-14 0 0)
(-6.00278e-14 0 0)
(-9.87695e-14 0 0)
(-2.18319e-14 0 0)
(-6.56895e-14 0 0)
(-6.89891e-14 0 0)
(-3.36488e-14 0 0)
(-5.07948e-14 0 0)
(-1.7675e-14 0 0)
(-3.04246e-14 0 0)
(-4.33785e-14 0 0)
(-2.89504e-14 0 0)
(-6.30515e-14 0 0)
(-4.71492e-14 0 0)
(-7.86789e-14 0 0)
(-4.23353e-14 0 0)
(-5.2971e-14 0 0)
(-7.27238e-14 0 0)
(-4.18736e-14 0 0)
(-7.17734e-14 0 0)
(-7.09965e-14 0 0)
(-5.97967e-14 0 0)
(-6.92379e-14 0 0)
(-4.07586e-14 0 0)
(-5.60794e-14 0 0)
(-1.2195e-14 0 0)
(-7.26082e-14 0 0)
(-1.58632e-14 0 0)
(-6.61201e-14 0 0)
(-2.65924e-14 0 0)
(-5.28155e-14 0 0)
(-5.85352e-14 0 0)
(-3.01183e-14 0 0)
(-3.90887e-14 0 0)
(-4.67225e-14 0 0)
(-4.52484e-14 0 0)
(-6.76568e-14 0 0)
(-4.4365e-14 0 0)
(-1.09179e-13 0 0)
(-3.21038e-14 0 0)
(-1.0456e-13 0 0)
(-7.58728e-14 0 0)
(-9.93115e-14 0 0)
(-6.35049e-14 0 0)
(-8.68416e-14 0 0)
(-7.08146e-14 0 0)
(-9.27036e-14 0 0)
(-8.82225e-14 0 0)
(-6.57877e-14 0 0)
(-7.87193e-14 0 0)
(-1.05915e-13 0 0)
(-7.57707e-14 0 0)
(-1.13389e-13 0 0)
(-6.37227e-14 0 0)
(-8.89731e-14 0 0)
(-7.40121e-14 0 0)
(-7.59835e-14 0 0)
(-5.71542e-14 0 0)
(-3.30491e-14 0 0)
(-1.17595e-14 0 0)
(1.56007e-14 0 0)
(-2.48643e-14 0 0)
(4.2357e-14 0 0)
(1.11113e-14 0 0)
(7.11517e-14 0 0)
(2.88083e-14 0 0)
(6.95663e-14 0 0)
(1.06184e-14 0 0)
(6.07156e-14 0 0)
(1.63384e-14 0 0)
(7.10626e-14 0 0)
(-7.38012e-15 0 0)
(6.70568e-14 0 0)
(-1.3371e-14 0 0)
(3.69036e-14 0 0)
(1.22349e-14 0 0)
(5.34325e-14 0 0)
(2.58596e-14 0 0)
(4.65982e-14 0 0)
(5.69678e-14 0 0)
(6.77146e-14 0 0)
(7.75824e-14 0 0)
(5.15766e-14 0 0)
(7.02458e-14 0 0)
(2.41366e-14 0 0)
(6.00183e-14 0 0)
(2.58946e-15 0 0)
(5.99206e-14 0 0)
(2.51977e-14 0 0)
(3.66152e-14 0 0)
(3.61665e-14 0 0)
(3.18368e-14 0 0)
(1.76037e-14 0 0)
(4.08127e-15 0 0)
(2.30484e-15 0 0)
(2.25598e-14 0 0)
(2.7267e-14 0 0)
(5.5742e-14 0 0)
(9.03734e-15 0 0)
(3.94128e-14 0 0)
(-1.7052e-15 0 0)
(2.87368e-14 0 0)
(-1.69815e-14 0 0)
(6.07687e-14 0 0)
(1.4038e-14 0 0)
(5.21757e-14 0 0)
(2.86263e-14 0 0)
(6.53429e-14 0 0)
(-5.6804e-16 0 0)
(6.55516e-14 0 0)
(6.53279e-15 0 0)
(1.88294e-14 0 0)
(1.09424e-14 0 0)
(1.77457e-14 0 0)
(-1.83831e-15 0 0)
(2.91453e-14 0 0)
(-1.6422e-14 0 0)
(2.81282e-14 0 0)
(-3.73919e-14 0 0)
(3.35994e-14 0 0)
(-3.09838e-14 0 0)
(-2.42428e-14 0 0)
(-1.84342e-14 0 0)
(-2.11919e-14 0 0)
(-1.25258e-15 0 0)
(-5.5555e-14 0 0)
(2.16443e-14 0 0)
(-6.05777e-14 0 0)
(2.30431e-14 0 0)
(-8.42517e-14 0 0)
(4.5052e-14 0 0)
(-4.55007e-14 0 0)
(5.35654e-14 0 0)
(-3.72052e-14 0 0)
(5.20556e-14 0 0)
(-3.02955e-14 0 0)
(2.46379e-14 0 0)
(-2.9847e-14 0 0)
(6.72349e-15 0 0)
(-9.04608e-15 0 0)
(2.38963e-14 0 0)
(-2.33323e-14 0 0)
(2.46066e-14 0 0)
(-5.10031e-14 0 0)
(4.8232e-14 0 0)
(-1.98239e-14 0 0)
(1.19415e-14 0 0)
(8.25573e-15 0 0)
(4.3787e-14 0 0)
(2.86705e-14 0 0)
(1.93891e-14 0 0)
(4.73798e-14 0 0)
(4.70468e-14 0 0)
(7.39806e-14 0 0)
(3.76679e-14 0 0)
(9.78059e-14 0 0)
(5.3895e-14 0 0)
(1.17834e-13 0 0)
(8.15705e-14 0 0)
(9.12914e-14 0 0)
(8.9977e-14 0 0)
(8.32755e-14 0 0)
(9.7291e-14 0 0)
(6.88962e-14 0 0)
(1.0318e-13 0 0)
(8.5083e-14 0 0)
(7.37324e-14 0 0)
(1.03961e-13 0 0)
(1.09037e-13 0 0)
(8.38e-14 0 0)
(1.0381e-13 0 0)
(8.72725e-14 0 0)
(5.33751e-14 0 0)
(6.78923e-14 0 0)
(2.11656e-14 0 0)
(7.95715e-14 0 0)
(9.75265e-15 0 0)
(1.02278e-13 0 0)
(2.37148e-14 0 0)
(7.92873e-14 0 0)
(8.81543e-15 0 0)
(2.76934e-14 0 0)
(3.08242e-14 0 0)
(5.03284e-14 0 0)
(5.07651e-15 0 0)
(7.85455e-14 0 0)
(4.37031e-14 0 0)
(5.50314e-14 0 0)
(7.06503e-14 0 0)
(7.68806e-14 0 0)
(6.74395e-14 0 0)
(7.80352e-14 0 0)
(6.51303e-14 0 0)
(9.3303e-14 0 0)
(8.70681e-14 0 0)
(5.2958e-14 0 0)
(9.19083e-14 0 0)
(3.38312e-14 0 0)
(9.22902e-14 0 0)
(3.90624e-14 0 0)
(9.05183e-14 0 0)
(3.31296e-14 0 0)
(1.09401e-13 0 0)
(6.08317e-14 0 0)
(7.76354e-14 0 0)
(6.58273e-14 0 0)
(3.76723e-14 0 0)
(7.10894e-14 0 0)
(-1.56252e-15 0 0)
(1.07047e-13 0 0)
(1.37185e-14 0 0)
(1.25108e-13 0 0)
(4.13629e-14 0 0)
(1.19842e-13 0 0)
(4.78154e-14 0 0)
(7.87191e-14 0 0)
(6.31275e-14 0 0)
(1.03379e-13 0 0)
(4.6017e-14 0 0)
(1.21111e-13 0 0)
(5.92686e-14 0 0)
(1.1108e-13 0 0)
(1.09251e-13 0 0)
(1.26281e-13 0 0)
(1.31592e-13 0 0)
(6.89544e-14 0 0)
(1.53157e-13 0 0)
(1.07337e-13 0 0)
(1.18758e-13 0 0)
(1.24811e-13 0 0)
(1.36215e-13 0 0)
(1.07794e-13 0 0)
(1.42908e-13 0 0)
(1.30149e-13 0 0)
(1.5576e-13 0 0)
(9.9321e-14 0 0)
(1.7855e-13 0 0)
(1.25304e-13 0 0)
(1.40887e-13 0 0)
(1.46283e-13 0 0)
(1.65987e-13 0 0)
(1.14531e-13 0 0)
(1.80988e-13 0 0)
(1.31113e-13 0 0)
(1.63718e-13 0 0)
(1.50537e-13 0 0)
(1.32903e-13 0 0)
(1.67559e-13 0 0)
(1.55862e-13 0 0)
(1.39617e-13 0 0)
(1.29843e-13 0 0)
(9.62299e-14 0 0)
(1.44222e-13 0 0)
(1.02265e-13 0 0)
(1.26641e-13 0 0)
(1.16667e-13 0 0)
(1.51519e-13 0 0)
(1.40261e-13 0 0)
(1.66689e-13 0 0)
(1.36926e-13 0 0)
(1.3741e-13 0 0)
(1.73021e-13 0 0)
(1.63074e-13 0 0)
(1.56466e-13 0 0)
(1.74336e-13 0 0)
(1.53051e-13 0 0)
(1.79563e-13 0 0)
(1.43534e-13 0 0)
(1.30642e-13 0 0)
(1.46643e-13 0 0)
(1.27525e-13 0 0)
(1.39822e-13 0 0)
(1.61577e-13 0 0)
(1.76863e-13 0 0)
(1.31136e-13 0 0)
(2.03086e-13 0 0)
(1.2395e-13 0 0)
(1.9618e-13 0 0)
(1.3189e-13 0 0)
(1.41043e-13 0 0)
(1.4349e-13 0 0)
(1.39737e-13 0 0)
(1.52327e-13 0 0)
(1.27276e-13 0 0)
(1.42082e-13 0 0)
(9.53597e-14 0 0)
(1.44084e-13 0 0)
(7.34485e-14 0 0)
(1.68225e-13 0 0)
(1.00147e-13 0 0)
(1.35154e-13 0 0)
(1.07328e-13 0 0)
(1.18683e-13 0 0)
(1.13718e-13 0 0)
(1.33853e-13 0 0)
(8.70907e-14 0 0)
(1.58881e-13 0 0)
(1.06528e-13 0 0)
(1.20597e-13 0 0)
(1.24984e-13 0 0)
(1.41536e-13 0 0)
(1.33227e-13 0 0)
(1.28759e-13 0 0)
(1.12505e-13 0 0)
(1.0219e-13 0 0)
(1.20308e-13 0 0)
(1.13332e-13 0 0)
(1.40398e-13 0 0)
(7.07616e-14 0 0)
(1.23674e-13 0 0)
(7.3315e-14 0 0)
(9.62607e-14 0 0)
(7.60859e-14 0 0)
(1.05613e-13 0 0)
(7.46605e-14 0 0)
(9.74774e-14 0 0)
(8.01585e-14 0 0)
(1.21849e-13 0 0)
(9.64742e-14 0 0)
(1.52922e-13 0 0)
(8.74061e-14 0 0)
(1.60675e-13 0 0)
(9.60481e-14 0 0)
(1.31468e-13 0 0)
(9.05055e-14 0 0)
(8.94618e-14 0 0)
(9.26323e-14 0 0)
(4.28953e-14 0 0)
(1.28097e-13 0 0)
(6.98336e-14 0 0)
(1.22164e-13 0 0)
(6.28923e-14 0 0)
(9.2366e-14 0 0)
(7.48425e-14 0 0)
(9.97688e-14 0 0)
(3.37113e-14 0 0)
(1.07553e-13 0 0)
(4.05991e-14 0 0)
(8.99456e-14 0 0)
(6.87143e-14 0 0)
(1.29785e-13 0 0)
(9.21842e-14 0 0)
(1.09184e-13 0 0)
(1.1922e-13 0 0)
(7.71831e-14 0 0)
(1.42117e-13 0 0)
(1.08544e-13 0 0)
(1.16911e-13 0 0)
(1.19891e-13 0 0)
(1.3058e-13 0 0)
(8.35158e-14 0 0)
(1.29607e-13 0 0)
(8.13753e-14 0 0)
(1.57518e-13 0 0)
(1.00982e-13 0 0)
(1.40163e-13 0 0)
(1.14198e-13 0 0)
(1.58948e-13 0 0)
(1.34519e-13 0 0)
(2.10072e-13 0 0)
(1.65784e-13 0 0)
(3.42063e-13 0 0)
(3.45902e-13 0 0)
(5.22746e-13 0 0)
(6.89866e-13 0 0)
(1.02444e-12 0 0)
(1.44926e-12 0 0)
(2.09661e-12 0 0)
(3.12119e-12 0 0)
(4.55729e-12 0 0)
(6.77579e-12 0 0)
(9.99058e-12 0 0)
(1.48446e-11 0 0)
(2.18676e-11 0 0)
(3.22283e-11 0 0)
(4.73926e-11 0 0)
(6.94789e-11 0 0)
(1.0153e-10 0 0)
(1.48026e-10 0 0)
(2.15132e-10 0 0)
(3.11832e-10 0 0)
(4.50565e-10 0 0)
(6.49208e-10 0 0)
(9.32422e-10 0 0)
(1.33523e-09 0 0)
(1.90611e-09 0 0)
(2.71269e-09 0 0)
(3.84856e-09 0 0)
(5.443e-09 0 0)
(7.67397e-09 0 0)
(1.07852e-08 0 0)
(1.51099e-08 0 0)
(2.11016e-08 0 0)
(2.93751e-08 0 0)
(4.07615e-08 0 0)
(5.63792e-08 0 0)
(7.77288e-08 0 0)
(1.06815e-07 0 0)
(1.46306e-07 0 0)
(1.99741e-07 0 0)
(2.71795e-07 0 0)
(3.68618e-07 0 0)
(4.98275e-07 0 0)
(6.71292e-07 0 0)
(9.01358e-07 0 0)
(1.20621e-06 0 0)
(1.60871e-06 0 0)
(2.13825e-06 0 0)
(2.83243e-06 0 0)
(3.73917e-06 0 0)
(4.91924e-06 0 0)
(6.44946e-06 0 0)
(8.42646e-06 0 0)
(1.09713e-05 0 0)
(1.42349e-05 0 0)
(1.84049e-05 0 0)
(2.37129e-05 0 0)
(3.04443e-05 0 0)
(3.89486e-05 0 0)
(4.9652e-05 0 0)
(6.3072e-05 0 0)
(7.98339e-05 0 0)
(0.00010069 0 0)
(0.000126539 0 0)
(0.000158454 0 0)
(0.000197705 0 0)
(0.00024579 0 0)
(0.000304469 0 0)
(0.000375795 0 0)
(0.000462154 0 0)
(0.000566303 0 0)
(0.000691414 0 0)
(0.000841114 0 0)
(0.00101953 0 0)
(0.00123134 0 0)
(0.0014818 0 0)
(0.0017768 0 0)
(0.00212291 0 0)
(0.0025274 0 0)
(0.00299828 0 0)
(0.00354433 0 0)
(0.00417513 0 0)
(0.00490106 0 0)
(0.0057333 0 0)
(0.00668387 0 0)
(0.00776558 0 0)
(0.008992 0 0)
(0.0103775 0 0)
(0.0119371 0 0)
(0.0136867 0 0)
(0.0156424 0 0)
(0.0178214 0 0)
(0.0202409 0 0)
(0.0229188 0 0)
(0.0258733 0 0)
(0.0291228 0 0)
(0.0326859 0 0)
(0.0365814 0 0)
(0.0408279 0 0)
(0.045444 0 0)
(0.0504484 0 0)
(0.0558592 0 0)
(0.0616945 0 0)
(0.0679719 0 0)
(0.0747085 0 0)
(0.0819212 0 0)
(0.0896261 0 0)
(0.097839 0 0)
(0.106575 0 0)
(0.115848 0 0)
(0.125673 0 0)
(0.136062 0 0)
(0.147027 0 0)
(0.158582 0 0)
(0.170736 0 0)
(0.183501 0 0)
(0.196886 0 0)
(0.210901 0 0)
(0.225553 0 0)
(0.240852 0 0)
(0.256804 0 0)
(0.273416 0 0)
(0.290695 0 0)
(0.308646 0 0)
(0.327274 0 0)
(0.346586 0 0)
(0.366584 0 0)
(0.387273 0 0)
(0.408657 0 0)
(0.430738 0 0)
(0.453521 0 0)
(0.477007 0 0)
(0.5012 0 0)
(0.526101 0 0)
(0.551712 0 0)
(0.578035 0 0)
(0.605072 0 0)
(0.632823 0 0)
(0.661292 0 0)
(0.690477 0 0)
(0.720381 0 0)
(0.751005 0 0)
(0.782349 0 0)
(0.814413 0 0)
(0.8472 0 0)
(0.880709 0 0)
(0.914941 0 0)
(0.949897 0 0)
(0.985577 0 0)
(1.02198 0 0)
(1.05911 0 0)
(1.09697 0 0)
(1.13555 0 0)
(1.17486 0 0)
(1.2149 0 0)
(1.25566 0 0)
(1.29715 0 0)
(1.33937 0 0)
(1.38232 0 0)
(1.426 0 0)
(1.47042 0 0)
(1.51556 0 0)
(1.56143 0 0)
(1.60804 0 0)
(1.65538 0 0)
(1.70345 0 0)
(1.75226 0 0)
(1.8018 0 0)
(1.85208 0 0)
(1.9031 0 0)
(1.95485 0 0)
(2.00734 0 0)
(2.06057 0 0)
(2.11454 0 0)
(2.16925 0 0)
(2.22471 0 0)
(2.2809 0 0)
(2.33784 0 0)
(2.39553 0 0)
(2.45396 0 0)
(2.51313 0 0)
(2.57305 0 0)
(2.63373 0 0)
(2.69515 0 0)
(2.75732 0 0)
(2.82025 0 0)
(2.88392 0 0)
(2.94835 0 0)
(3.01354 0 0)
(3.07948 0 0)
(3.14619 0 0)
(3.21365 0 0)
(3.28187 0 0)
(3.35085 0 0)
(3.42059 0 0)
(3.4911 0 0)
(3.56237 0 0)
(3.63441 0 0)
(3.70722 0 0)
(3.7808 0 0)
(3.85515 0 0)
(3.93027 0 0)
(4.00616 0 0)
(4.08283 0 0)
(4.16028 0 0)
(4.2385 0 0)
(4.3175 0 0)
(4.39728 0 0)
(4.47785 0 0)
(4.5592 0 0)
(4.64133 0 0)
(4.72425 0 0)
(4.80796 0 0)
(4.89245 0 0)
(4.97774 0 0)
(5.06383 0 0)
(5.1507 0 0)
(5.23838 0 0)
(5.32685 0 0)
(5.41612 0 0)
(5.50619 0 0)
(5.59706 0 0)
(5.68874 0 0)
(5.78122 0 0)
(5.87451 0 0)
(5.96861 0 0)
(6.06353 0 0)
(6.15925 0 0)
(6.25579 0 0)
(6.35315 0 0)
(6.45132 0 0)
(6.55032 0 0)
(6.65013 0 0)
(6.75077 0 0)
(6.85224 0 0)
(6.95454 0 0)
(7.05766 0 0)
(7.16162 0 0)
(7.26641 0 0)
(7.37203 0 0)
(7.47849 0 0)
(7.5858 0 0)
(7.69394 0 0)
(7.80293 0 0)
(7.91276 0 0)
(8.02344 0 0)
(8.13498 0 0)
(8.24736 0 0)
(8.3606 0 0)
(8.4747 0 0)
(8.58965 0 0)
(8.70547 0 0)
(8.82215 0 0)
(8.93969 0 0)
(9.05811 0 0)
(9.17739 0 0)
(9.29755 0 0)
(9.41858 0 0)
(9.54049 0 0)
(9.66328 0 0)
(9.78696 0 0)
(9.91152 0 0)
(10.037 0 0)
(10.1633 0 0)
(10.2905 0 0)
(10.4187 0 0)
(10.5477 0 0)
(10.6776 0 0)
(10.8084 0 0)
(10.9402 0 0)
(11.0728 0 0)
(11.2064 0 0)
(11.3409 0 0)
(11.4762 0 0)
(11.6126 0 0)
(11.7498 0 0)
(11.888 0 0)
(12.027 0 0)
(12.1671 0 0)
(12.308 0 0)
(12.4499 0 0)
(12.5928 0 0)
(12.7365 0 0)
(12.8813 0 0)
(13.0269 0 0)
(13.1736 0 0)
(13.3212 0 0)
(13.4697 0 0)
(13.6192 0 0)
(13.7697 0 0)
(13.9212 0 0)
(14.0736 0 0)
(14.227 0 0)
(14.3814 0 0)
(14.5367 0 0)
(14.6931 0 0)
(14.8504 0 0)
(15.0088 0 0)
(15.1681 0 0)
(15.3285 0 0)
(15.4898 0 0)
(15.6522 0 0)
(15.8155 0 0)
(15.9799 0 0)
(16.1453 0 0)
(16.3118 0 0)
(16.4792 0 0)
(16.6477 0 0)
(16.8173 0 0)
(16.9879 0 0)
(17.1595 0 0)
(17.3322 0 0)
(17.5059 0 0)
(17.6807 0 0)
(17.8565 0 0)
(18.0334 0 0)
(18.2114 0 0)
(18.3905 0 0)
(18.5706 0 0)
(18.7519 0 0)
(18.9342 0 0)
(19.1176 0 0)
(19.3021 0 0)
(19.4877 0 0)
(19.6744 0 0)
(19.8623 0 0)
(20.0513 0 0)
(20.2413 0 0)
(20.4326 0 0)
(20.6249 0 0)
(20.8184 0 0)
(21.013 0 0)
(21.2088 0 0)
(21.4058 0 0)
(21.6039 0 0)
(21.8031 0 0)
(22.0036 0 0)
(22.2052 0 0)
(22.408 0 0)
(22.612 0 0)
(22.8172 0 0)
(23.0236 0 0)
(23.2312 0 0)
(23.44 0 0)
(23.6501 0 0)
(23.8614 0 0)
(24.0739 0 0)
(24.2876 0 0)
(24.5027 0 0)
(24.7188 0 0)
(24.9365 0 0)
(25.155 0 0)
(25.3754 0 0)
(25.5964 0 0)
(25.8194 0 0)
(26.0428 0 0)
(26.2686 0 0)
(26.4945 0 0)
(26.7231 0 0)
(26.9514 0 0)
(27.1829 0 0)
(27.4137 0 0)
(27.6481 0 0)
(27.8814 0 0)
(28.1186 0 0)
(28.3547 0 0)
(28.5947 0 0)
(28.8335 0 0)
(29.0762 0 0)
(29.318 0 0)
(29.5633 0 0)
(29.8083 0 0)
(30.056 0 0)
(30.3045 0 0)
(30.5544 0 0)
(30.8067 0 0)
(31.0586 0 0)
(31.3148 0 0)
(31.5686 0 0)
(31.829 0 0)
(32.0848 0 0)
(32.3492 0 0)
(32.607 0 0)
(32.8757 0 0)
(33.1355 0 0)
(33.4084 0 0)
(33.6703 0 0)
(33.9475 0 0)
(34.2115 0 0)
(34.4931 0 0)
(34.7592 0 0)
(35.0453 0 0)
(35.3135 0 0)
(35.6042 0 0)
(35.8746 0 0)
(36.1698 0 0)
(36.4425 0 0)
(36.7424 0 0)
(37.0174 0 0)
(37.3221 0 0)
(37.5993 0 0)
(37.9089 0 0)
(38.1885 0 0)
(38.5031 0 0)
(38.7851 0 0)
(39.1047 0 0)
(39.3891 0 0)
(39.7138 0 0)
(40.0008 0 0)
(40.3307 0 0)
(40.6203 0 0)
(40.9555 0 0)
(41.2479 0 0)
(41.5882 0 0)
(41.8837 0 0)
(42.2291 0 0)
(42.528 0 0)
(42.8784 0 0)
(43.1807 0 0)
(43.5362 0 0)
(43.8423 0 0)
(44.2029 0 0)
(44.5128 0 0)
(44.8785 0 0)
(45.1924 0 0)
(45.5634 0 0)
(45.8815 0 0)
(46.2579 0 0)
(46.5802 0 0)
(46.9621 0 0)
(47.2888 0 0)
(47.6764 0 0)
(48.0076 0 0)
(48.401 0 0)
(48.737 0 0)
(49.1363 0 0)
(49.4771 0 0)
(49.8826 0 0)
(50.2284 0 0)
(50.6403 0 0)
(50.9913 0 0)
(51.4097 0 0)
(51.7661 0 0)
(52.1914 0 0)
(52.5533 0 0)
(52.9856 0 0)
(53.3534 0 0)
(53.793 0 0)
(54.1669 0 0)
(54.6141 0 0)
(54.9943 0 0)
(55.4495 0 0)
(55.8364 0 0)
(56.2997 0 0)
(56.6937 0 0)
(57.1656 0 0)
(57.567 0 0)
(58.048 0 0)
(58.4573 0 0)
(58.9476 0 0)
(59.3654 0 0)
(59.8657 0 0)
(60.2925 0 0)
(60.8032 0 0)
(61.2397 0 0)
(61.7616 0 0)
(62.2085 0 0)
(62.7421 0 0)
(63.2001 0 0)
(63.7464 0 0)
(64.2163 0 0)
(64.776 0 0)
(65.2585 0 0)
(65.8321 0 0)
(66.3276 0 0)
(66.9152 0 0)
(67.4235 0 0)
(68.0243 0 0)
(68.5436 0 0)
(69.1546 0 0)
(69.6801 0 0)
(70.2937 0 0)
(70.8139 0 0)
(71.418 0 0)
(71.907 0 0)
(72.4747 0 0)
(72.9305 0 0)
(73.4718 0 0)
(73.9103 0 0)
(74.4432 0 0)
(74.8802 0 0)
(75.418 0 0)
(75.8617 0 0)
(76.4092 0 0)
(76.8616 0 0)
(77.418 0 0)
(77.8775 0 0)
(78.44 0 0)
(78.9039 0 0)
(79.4702 0 0)
(79.9366 0 0)
(80.5053 0 0)
(80.9732 0 0)
(81.5441 0 0)
(82.0137 0 0)
(82.5869 0 0)
(83.0583 0 0)
(83.6342 0 0)
(84.1077 0 0)
(84.6863 0 0)
(85.1619 0 0)
(85.7433 0 0)
(86.2209 0 0)
(86.8048 0 0)
(87.2841 0 0)
(87.8704 0 0)
(88.3511 0 0)
(88.9395 0 0)
(89.4213 0 0)
(90.0116 0 0)
(90.4943 0 0)
(91.0862 0 0)
(91.5696 0 0)
(92.163 0 0)
(92.6468 0 0)
(93.2413 0 0)
(93.7252 0 0)
(94.3207 0 0)
(94.8044 0 0)
(95.4006 0 0)
(95.8838 0 0)
(96.4805 0 0)
(96.9628 0 0)
(97.5598 0 0)
(98.041 0 0)
(98.638 0 0)
(99.1176 0 0)
(99.7145 0 0)
(100.192 0 0)
(100.788 0 0)
(101.263 0 0)
(101.859 0 0)
(102.331 0 0)
(102.924 0 0)
(103.392 0 0)
(103.982 0 0)
(104.445 0 0)
(105.031 0 0)
(105.486 0 0)
(106.066 0 0)
(106.512 0 0)
(107.084 0 0)
(107.518 0 0)
(108.079 0 0)
(108.498 0 0)
(109.045 0 0)
(109.447 0 0)
(109.978 0 0)
(110.359 0 0)
(110.87 0 0)
(111.228 0 0)
(111.724 0 0)
(112.063 0 0)
(112.537 0 0)
(112.841 0 0)
(113.283 0 0)
(113.526 0 0)
(113.928 0 0)
(114.094 0 0)
(114.448 0 0)
(114.522 0 0)
(114.822 0 0)
(114.787 0 0)
(115.012 0 0)
(114.825 0 0)
(114.947 0 0)
(114.542 0 0)
(114.522 0 0)
(113.841 0 0)
(113.649 0 0)
(112.882 0 0)
(113.74 0 0)
)
;

boundaryField
{
    sideLeft
    {
        type            symmetryPlane;
    }
    sideRight
    {
        type            calculated;
        value           uniform (113.306 0 0);
    }
    topbottom
    {
        type            empty;
    }
    frontback
    {
        type            empty;
    }
}


// ************************************************************************* //
