/*--------------------------------*- C++ -*----------------------------------*\
| =========                 |                                                 |
| \\      /  F ield         | OpenFOAM: The Open Source CFD Toolbox           |
|  \\    /   O peration     | Version:  2.4.0                                 |
|   \\  /    A nd           | Web:      www.OpenFOAM.org                      |
|    \\/     M anipulation  |                                                 |
\*---------------------------------------------------------------------------*/
FoamFile
{
    version     2.0;
    format      ascii;
    class       volVectorField;
    location    "0.16";
    object      U.water;
}
// * * * * * * * * * * * * * * * * * * * * * * * * * * * * * * * * * * * * * //

dimensions      [0 1 -1 0 0 0 0];

internalField   nonuniform List<vector> 
1000
(
(-1.20791e-13 0 0)
(7.81593e-14 0 0)
(7.81603e-14 0 0)
(1.20792e-13 0 0)
(-1.27897e-13 0 0)
(-1.20793e-13 0 0)
(4.2633e-14 0 0)
(-1.49214e-13 0 0)
(-1.13687e-13 0 0)
(-8.52653e-14 0 0)
(-1.20792e-13 0 0)
(4.97386e-14 0 0)
(4.61852e-13 0 0)
(6.75017e-13 0 0)
(8.02912e-13 0 0)
(6.75016e-13 0 0)
(4.61852e-13 0 0)
(3.76588e-13 0 0)
(4.83168e-13 0 0)
(3.76589e-13 0 0)
(5.32906e-13 0 0)
(4.90275e-13 0 0)
(5.61328e-13 0 0)
(4.9738e-13 0 0)
(4.83169e-13 0 0)
(3.12639e-13 0 0)
(3.12639e-13 0 0)
(4.3343e-13 0 0)
(5.40013e-13 0 0)
(6.67909e-13 0 0)
(9.2371e-14 0 0)
(6.39489e-14 0 0)
(3.12639e-13 0 0)
(2.77112e-13 0 0)
(2.629e-13 0 0)
(-8.52635e-14 0 0)
(1.42092e-14 0 0)
(-4.26314e-14 0 0)
(-2.20269e-13 0 0)
(-3.33954e-13 0 0)
(-4.12115e-13 0 0)
(-9.23702e-14 0 0)
(1.63425e-13 0 0)
(6.39491e-14 0 0)
(-2.70007e-13 0 0)
(-3.05533e-13 0 0)
(-1.56319e-13 0 0)
(-2.84219e-14 0 0)
(-2.34479e-13 0 0)
(-2.98428e-13 0 0)
(-1.20792e-13 0 0)
(-2.41585e-13 0 0)
(-5.18696e-13 0 0)
(-5.89751e-13 0 0)
(-2.70006e-13 0 0)
(-1.35003e-13 0 0)
(1.27898e-13 0 0)
(8.52648e-14 0 0)
(-6.39485e-14 0 0)
(1.27897e-13 0 0)
(4.12116e-13 0 0)
(3.76587e-13 0 0)
(3.33955e-13 0 0)
(1.77636e-13 0 0)
(2.27373e-13 0 0)
(4.97384e-14 0 0)
(-1.77636e-13 0 0)
(-4.12115e-13 0 0)
(-5.47118e-13 0 0)
(-4.47642e-13 0 0)
(-4.1922e-13 0 0)
(-3.90799e-13 0 0)
(-5.18696e-13 0 0)
(-6.18173e-13 0 0)
(-7.24754e-13 0 0)
(-5.32907e-13 0 0)
(-4.76064e-13 0 0)
(-7.31859e-13 0 0)
(-8.3844e-13 0 0)
(-7.88703e-13 0 0)
(-8.66862e-13 0 0)
(-8.88179e-13 0 0)
(-8.88178e-13 0 0)
(-9.59234e-13 0 0)
(-1.03739e-12 0 0)
(-7.17649e-13 0 0)
(-7.38964e-13 0 0)
(-6.39489e-13 0 0)
(-4.61853e-13 0 0)
(-9.94757e-14 0 0)
(1.20792e-13 0 0)
(9.23705e-14 0 0)
(4.97381e-14 0 0)
(-1.49214e-13 0 0)
(-9.94757e-14 0 0)
(1.20792e-13 0 0)
(9.23717e-14 0 0)
(1.8474e-13 0 0)
(2.3448e-13 0 0)
(4.61853e-13 0 0)
(4.26326e-13 0 0)
(3.12638e-13 0 0)
(3.55274e-14 0 0)
(-7.10546e-14 0 0)
(1.98952e-13 0 0)
(2.91323e-13 0 0)
(3.62376e-13 0 0)
(5.61329e-13 0 0)
(3.76588e-13 0 0)
(3.83693e-13 0 0)
(5.25802e-13 0 0)
(3.90798e-13 0 0)
(4.33431e-13 0 0)
(5.7554e-13 0 0)
(7.88703e-13 0 0)
(8.38441e-13 0 0)
(7.74492e-13 0 0)
(8.45546e-13 0 0)
(9.52127e-13 0 0)
(6.89227e-13 0 0)
(7.6028e-13 0 0)
(5.68435e-13 0 0)
(2.55795e-13 0 0)
(1.42115e-14 0 0)
(-7.81605e-14 0 0)
(-3.26849e-13 0 0)
(-2.48691e-13 0 0)
(-1.42108e-13 0 0)
(7.81587e-14 0 0)
(2.77113e-13 0 0)
(2.55794e-13 0 0)
(2.3448e-13 0 0)
(5.82644e-13 0 0)
(4.9738e-13 0 0)
(4.54747e-13 0 0)
(4.9738e-13 0 0)
(1.7053e-13 0 0)
(6.39488e-14 0 0)
(1.42109e-13 0 0)
(-7.81599e-14 0 0)
(-3.55271e-13 0 0)
(-2.27374e-13 0 0)
(-2.84211e-14 0 0)
(2.13156e-14 0 0)
(-2.27373e-13 0 0)
(2.13155e-14 0 0)
(1.98952e-13 0 0)
(-2.13164e-14 0 0)
(-2.55795e-13 0 0)
(-8.52652e-14 0 0)
(-1.91847e-13 0 0)
(1.20792e-13 0 0)
(3.55274e-14 0 0)
(-7.81599e-14 0 0)
(9.02507e-20 0 0)
(-1.42115e-14 0 0)
(-1.77635e-13 0 0)
(-4.97385e-14 0 0)
(-1.56319e-13 0 0)
(-2.70007e-13 0 0)
(-4.40536e-13 0 0)
(-4.0501e-13 0 0)
(-2.84216e-13 0 0)
(-3.76588e-13 0 0)
(-4.1922e-13 0 0)
(-3.62378e-13 0 0)
(-4.9737e-14 0 0)
(1.56318e-13 0 0)
(4.19221e-13 0 0)
(7.60281e-13 0 0)
(5.82645e-13 0 0)
(7.67386e-13 0 0)
(1.00897e-12 0 0)
(1.14397e-12 0 0)
(1.02318e-12 0 0)
(1.09424e-12 0 0)
(7.81598e-13 0 0)
(7.81596e-13 0 0)
(8.81074e-13 0 0)
(6.82121e-13 0 0)
(6.82121e-13 0 0)
(7.24754e-13 0 0)
(7.38964e-13 0 0)
(5.89752e-13 0 0)
(6.46593e-13 0 0)
(8.38442e-13 0 0)
(5.40011e-13 0 0)
(7.10732e-15 0 0)
(2.13146e-14 0 0)
(1.42123e-14 0 0)
(3.55257e-14 0 0)
(5.68448e-14 0 0)
(3.69481e-13 0 0)
(4.0501e-13 0 0)
(4.47641e-13 0 0)
(1.91847e-13 0 0)
(2.77111e-13 0 0)
(2.13166e-14 0 0)
(3.26849e-13 0 0)
(1.5632e-13 0 0)
(2.48689e-13 0 0)
(2.84231e-14 0 0)
(4.47641e-13 0 0)
(5.18697e-13 0 0)
(5.82645e-13 0 0)
(8.66862e-13 0 0)
(1.06581e-12 0 0)
(9.9476e-13 0 0)
(9.0239e-13 0 0)
(1.19371e-12 0 0)
(1.47793e-12 0 0)
(1.82609e-12 0 0)
(1.88294e-12 0 0)
(2.02505e-12 0 0)
(1.86873e-12 0 0)
(1.91136e-12 0 0)
(1.92557e-12 0 0)
(1.98952e-12 0 0)
(2.07478e-12 0 0)
(2.05347e-12 0 0)
(2.089e-12 0 0)
(2.03926e-12 0 0)
(2.02505e-12 0 0)
(2.03926e-12 0 0)
(1.81188e-12 0 0)
(1.5703e-12 0 0)
(1.67688e-12 0 0)
(1.81188e-12 0 0)
(1.48503e-12 0 0)
(1.47082e-12 0 0)
(1.34293e-12 0 0)
(1.26477e-12 0 0)
(1.19371e-12 0 0)
(1.1795e-12 0 0)
(8.38442e-13 0 0)
(7.17647e-13 0 0)
(7.95809e-13 0 0)
(1.08002e-12 0 0)
(1.15108e-12 0 0)
(1.06581e-12 0 0)
(5.54223e-13 0 0)
(1.27897e-13 0 0)
(1.77637e-13 0 0)
(2.13155e-14 0 0)
(7.10575e-15 0 0)
(2.27374e-13 0 0)
(5.47118e-13 0 0)
(5.82645e-13 0 0)
(6.82121e-13 0 0)
(5.40012e-13 0 0)
(1.20793e-13 0 0)
(-7.10546e-14 0 0)
(-7.81599e-14 0 0)
(1.06582e-13 0 0)
(3.69481e-13 0 0)
(5.04486e-13 0 0)
(2.27373e-13 0 0)
(1.77636e-13 0 0)
(2.84216e-13 0 0)
(3.48167e-13 0 0)
(4.26316e-14 0 0)
(-2.27373e-13 0 0)
(-2.70006e-13 0 0)
(-1.7053e-13 0 0)
(2.13168e-14 0 0)
(-7.81605e-14 0 0)
(-6.39474e-14 0 0)
(1.20791e-13 0 0)
(-3.55255e-14 0 0)
(2.13147e-14 0 0)
(-9.23693e-14 0 0)
(2.13151e-14 0 0)
(8.52659e-14 0 0)
(4.97377e-14 0 0)
(-9.23701e-14 0 0)
(-5.68442e-14 0 0)
(1.84742e-13 0 0)
(4.97369e-14 0 0)
(-4.97371e-14 0 0)
(3.19744e-13 0 0)
(4.54747e-13 0 0)
(3.05533e-13 0 0)
(2.34479e-13 0 0)
(1.4211e-13 0 0)
(3.19743e-13 0 0)
(2.98428e-13 0 0)
(3.41061e-13 0 0)
(6.18172e-13 0 0)
(4.76063e-13 0 0)
(5.54224e-13 0 0)
(3.90798e-13 0 0)
(2.70007e-13 0 0)
(4.12114e-13 0 0)
(1.84742e-13 0 0)
(1.8474e-13 0 0)
(7.10548e-14 0 0)
(1.06581e-13 0 0)
(8.52652e-14 0 0)
(1.20792e-13 0 0)
(1.84742e-13 0 0)
(4.05008e-13 0 0)
(2.84218e-13 0 0)
(3.97904e-13 0 0)
(3.97904e-13 0 0)
(5.47118e-13 0 0)
(5.75539e-13 0 0)
(7.10543e-13 0 0)
(4.76064e-13 0 0)
(4.54747e-13 0 0)
(3.41061e-13 0 0)
(2.629e-13 0 0)
(7.10548e-14 0 0)
(-2.19193e-19 0 0)
(3.55272e-13 0 0)
(7.88702e-13 0 0)
(9.59233e-13 0 0)
(1.02318e-12 0 0)
(8.31335e-13 0 0)
(6.6791e-13 0 0)
(5.82645e-13 0 0)
(3.12639e-13 0 0)
(6.03962e-13 0 0)
(8.88178e-13 0 0)
(6.75016e-13 0 0)
(6.6791e-13 0 0)
(8.66862e-13 0 0)
(7.31859e-13 0 0)
(5.25801e-13 0 0)
(5.32907e-13 0 0)
(7.10543e-13 0 0)
(6.11067e-13 0 0)
(8.3844e-13 0 0)
(6.82122e-13 0 0)
(3.83692e-13 0 0)
(7.81608e-14 0 0)
(5.68423e-14 0 0)
(-4.97374e-14 0 0)
(-4.26326e-13 0 0)
(-6.11067e-13 0 0)
(-3.83693e-13 0 0)
(-3.76588e-13 0 0)
(-1.42108e-13 0 0)
(-9.94764e-14 0 0)
(-3.55271e-13 0 0)
(-4.97389e-14 0 0)
(-1.35002e-13 0 0)
(7.1053e-14 0 0)
(8.5266e-14 0 0)
(1.63424e-13 0 0)
(3.55274e-14 0 0)
(1.06581e-13 0 0)
(3.2685e-13 0 0)
(2.20268e-13 0 0)
(4.47643e-13 0 0)
(8.95283e-13 0 0)
(8.2423e-13 0 0)
(9.52127e-13 0 0)
(1.07292e-12 0 0)
(1.13687e-12 0 0)
(9.9476e-13 0 0)
(7.03437e-13 0 0)
(4.76064e-13 0 0)
(5.7554e-13 0 0)
(4.12115e-13 0 0)
(2.06058e-13 0 0)
(2.27373e-13 0 0)
(9.55115e-19 0 0)
(2.48689e-13 0 0)
(6.39495e-14 0 0)
(-2.84217e-13 0 0)
(-4.61852e-13 0 0)
(-4.76064e-13 0 0)
(-6.03961e-13 0 0)
(-2.20269e-13 0 0)
(1.20793e-13 0 0)
(8.52646e-14 0 0)
(7.10549e-14 0 0)
(4.9737e-14 0 0)
(1.4211e-13 0 0)
(-7.10648e-15 0 0)
(-3.55264e-14 0 0)
(-2.41585e-13 0 0)
(-5.82645e-13 0 0)
(-3.2685e-13 0 0)
(-2.55796e-13 0 0)
(-4.61852e-13 0 0)
(-4.47643e-13 0 0)
(-3.12638e-13 0 0)
(-2.62902e-13 0 0)
(-4.97379e-13 0 0)
(-4.54748e-13 0 0)
(-4.33431e-13 0 0)
(-4.33432e-13 0 0)
(-4.54746e-13 0 0)
(-3.76589e-13 0 0)
(-5.8975e-13 0 0)
(-7.3186e-13 0 0)
(-5.61328e-13 0 0)
(-5.82646e-13 0 0)
(-5.40012e-13 0 0)
(-6.53699e-13 0 0)
(-5.47118e-13 0 0)
(-5.40012e-13 0 0)
(-2.13164e-13 0 0)
(-1.7053e-13 0 0)
(-2.13163e-14 0 0)
(1.42109e-13 0 0)
(2.70006e-13 0 0)
(3.62378e-13 0 0)
(7.81596e-13 0 0)
(1.49925e-12 0 0)
(2.13163e-12 0 0)
(2.84217e-12 0 0)
(4.11404e-12 0 0)
(5.94724e-12 0 0)
(8.56915e-12 0 0)
(1.22569e-11 0 0)
(1.75078e-11 0 0)
(2.48832e-11 0 0)
(3.65432e-11 0 0)
(5.37028e-11 0 0)
(7.97371e-11 0 0)
(1.19257e-10 0 0)
(1.78495e-10 0 0)
(2.66567e-10 0 0)
(3.98089e-10 0 0)
(5.9341e-10 0 0)
(8.81698e-10 0 0)
(1.30657e-09 0 0)
(1.93079e-09 0 0)
(2.84466e-09 0 0)
(4.17841e-09 0 0)
(6.11913e-09 0 0)
(8.93368e-09 0 0)
(1.3003e-08 0 0)
(1.88675e-08 0 0)
(2.72929e-08 0 0)
(3.93584e-08 0 0)
(5.65811e-08 0 0)
(8.10849e-08 0 0)
(1.15835e-07 0 0)
(1.64955e-07 0 0)
(2.34159e-07 0 0)
(3.31334e-07 0 0)
(4.67333e-07 0 0)
(6.57028e-07 0 0)
(9.20728e-07 0 0)
(1.28606e-06 0 0)
(1.79047e-06 0 0)
(2.48451e-06 0 0)
(3.43617e-06 0 0)
(4.73655e-06 0 0)
(6.50722e-06 0 0)
(8.90977e-06 0 0)
(1.21582e-05 0 0)
(1.65346e-05 0 0)
(2.24095e-05 0 0)
(3.02677e-05 0 0)
(4.07405e-05 0 0)
(5.46469e-05 0 0)
(7.30445e-05 0 0)
(9.7294e-05 0 0)
(0.000129138 0 0)
(0.000170796 0 0)
(0.000225091 0 0)
(0.000295583 0 0)
(0.000386757 0 0)
(0.000504224 0 0)
(0.000654983 0 0)
(0.00084771 0 0)
(0.00109312 0 0)
(0.00140438 0 0)
(0.00179759 0 0)
(0.00229232 0 0)
(0.00291227 0 0)
(0.00368597 0 0)
(0.0046476 0 0)
(0.00583787 0 0)
(0.00730504 0 0)
(0.00910595 0 0)
(0.0113072 0 0)
(0.0139864 0 0)
(0.0172335 0 0)
(0.021152 0 0)
(0.0258602 0 0)
(0.0314928 0 0)
(0.0382021 0 0)
(0.0461587 0 0)
(0.0555533 0 0)
(0.0665969 0 0)
(0.0795214 0 0)
(0.0945803 0 0)
(0.112048 0 0)
(0.132221 0 0)
(0.155413 0 0)
(0.18196 0 0)
(0.212212 0 0)
(0.246534 0 0)
(0.285303 0 0)
(0.328906 0 0)
(0.377732 0 0)
(0.432174 0 0)
(0.492619 0 0)
(0.559448 0 0)
(0.633031 0 0)
(0.713718 0 0)
(0.801843 0 0)
(0.89771 0 0)
(1.0016 0 0)
(1.11375 0 0)
(1.23438 0 0)
(1.36366 0 0)
(1.50173 0 0)
(1.64867 0 0)
(1.80454 0 0)
(1.96935 0 0)
(2.14308 0 0)
(2.32564 0 0)
(2.51695 0 0)
(2.71686 0 0)
(2.92519 0 0)
(3.14174 0 0)
(3.36629 0 0)
(3.59857 0 0)
(3.8383 0 0)
(4.08521 0 0)
(4.33897 0 0)
(4.59927 0 0)
(4.86578 0 0)
(5.13818 0 0)
(5.41612 0 0)
(5.69927 0 0)
(5.9873 0 0)
(6.27988 0 0)
(6.5767 0 0)
(6.87743 0 0)
(7.18178 0 0)
(7.48945 0 0)
(7.80017 0 0)
(8.11365 0 0)
(8.42965 0 0)
(8.74792 0 0)
(9.06824 0 0)
(9.39039 0 0)
(9.71416 0 0)
(10.0394 0 0)
(10.3658 0 0)
(10.6934 0 0)
(11.0219 0 0)
(11.3513 0 0)
(11.6813 0 0)
(12.0119 0 0)
(12.343 0 0)
(12.6745 0 0)
(13.0062 0 0)
(13.3382 0 0)
(13.6704 0 0)
(14.0026 0 0)
(14.3349 0 0)
(14.6672 0 0)
(14.9994 0 0)
(15.3316 0 0)
(15.6637 0 0)
(15.9957 0 0)
(16.3275 0 0)
(16.6591 0 0)
(16.9906 0 0)
(17.3219 0 0)
(17.653 0 0)
(17.9839 0 0)
(18.3146 0 0)
(18.6452 0 0)
(18.9755 0 0)
(19.3056 0 0)
(19.6355 0 0)
(19.9653 0 0)
(20.2948 0 0)
(20.6242 0 0)
(20.9534 0 0)
(21.2825 0 0)
(21.6113 0 0)
(21.9401 0 0)
(22.2686 0 0)
(22.5971 0 0)
(22.9254 0 0)
(23.2536 0 0)
(23.5816 0 0)
(23.9096 0 0)
(24.2375 0 0)
(24.5652 0 0)
(24.8929 0 0)
(25.2206 0 0)
(25.5481 0 0)
(25.8756 0 0)
(26.203 0 0)
(26.5304 0 0)
(26.8578 0 0)
(27.1851 0 0)
(27.5124 0 0)
(27.8397 0 0)
(28.167 0 0)
(28.4942 0 0)
(28.8215 0 0)
(29.1488 0 0)
(29.4761 0 0)
(29.8034 0 0)
(30.1307 0 0)
(30.4581 0 0)
(30.7855 0 0)
(31.113 0 0)
(31.4405 0 0)
(31.768 0 0)
(32.0956 0 0)
(32.4233 0 0)
(32.751 0 0)
(33.0788 0 0)
(33.4066 0 0)
(33.7346 0 0)
(34.0626 0 0)
(34.3907 0 0)
(34.7189 0 0)
(35.0471 0 0)
(35.3755 0 0)
(35.7039 0 0)
(36.0325 0 0)
(36.3611 0 0)
(36.6899 0 0)
(37.0187 0 0)
(37.3477 0 0)
(37.6768 0 0)
(38.006 0 0)
(38.3353 0 0)
(38.6647 0 0)
(38.9942 0 0)
(39.3239 0 0)
(39.6537 0 0)
(39.9836 0 0)
(40.3137 0 0)
(40.6439 0 0)
(40.9742 0 0)
(41.3046 0 0)
(41.6352 0 0)
(41.966 0 0)
(42.2969 0 0)
(42.6279 0 0)
(42.9591 0 0)
(43.2905 0 0)
(43.622 0 0)
(43.9537 0 0)
(44.2856 0 0)
(44.6177 0 0)
(44.9499 0 0)
(45.2823 0 0)
(45.6149 0 0)
(45.9477 0 0)
(46.2807 0 0)
(46.6138 0 0)
(46.9472 0 0)
(47.2808 0 0)
(47.6147 0 0)
(47.9487 0 0)
(48.2829 0 0)
(48.6174 0 0)
(48.9522 0 0)
(49.2871 0 0)
(49.6223 0 0)
(49.9578 0 0)
(50.2935 0 0)
(50.6294 0 0)
(50.9657 0 0)
(51.3022 0 0)
(51.6389 0 0)
(51.976 0 0)
(52.3133 0 0)
(52.6509 0 0)
(52.9888 0 0)
(53.327 0 0)
(53.6655 0 0)
(54.0043 0 0)
(54.3434 0 0)
(54.6828 0 0)
(55.0225 0 0)
(55.3626 0 0)
(55.703 0 0)
(56.0437 0 0)
(56.3848 0 0)
(56.7262 0 0)
(57.0679 0 0)
(57.41 0 0)
(57.7525 0 0)
(58.0953 0 0)
(58.4385 0 0)
(58.782 0 0)
(59.1259 0 0)
(59.4702 0 0)
(59.8149 0 0)
(60.1599 0 0)
(60.5053 0 0)
(60.8512 0 0)
(61.1974 0 0)
(61.5441 0 0)
(61.8911 0 0)
(62.2386 0 0)
(62.5865 0 0)
(62.9348 0 0)
(63.2835 0 0)
(63.6327 0 0)
(63.9823 0 0)
(64.3324 0 0)
(64.6829 0 0)
(65.0339 0 0)
(65.3853 0 0)
(65.7372 0 0)
(66.0896 0 0)
(66.4425 0 0)
(66.7958 0 0)
(67.1497 0 0)
(67.504 0 0)
(67.8589 0 0)
(68.2142 0 0)
(68.5701 0 0)
(68.9265 0 0)
(69.2835 0 0)
(69.6409 0 0)
(69.999 0 0)
(70.3575 0 0)
(70.7167 0 0)
(71.0764 0 0)
(71.4367 0 0)
(71.7975 0 0)
(72.159 0 0)
(72.521 0 0)
(72.8837 0 0)
(73.2469 0 0)
(73.6108 0 0)
(73.9753 0 0)
(74.3404 0 0)
(74.7062 0 0)
(75.0726 0 0)
(75.4397 0 0)
(75.8075 0 0)
(76.1759 0 0)
(76.545 0 0)
(76.9148 0 0)
(77.2853 0 0)
(77.6565 0 0)
(78.0284 0 0)
(78.401 0 0)
(78.7744 0 0)
(79.1485 0 0)
(79.5234 0 0)
(79.899 0 0)
(80.2755 0 0)
(80.6526 0 0)
(81.0306 0 0)
(81.4093 0 0)
(81.7891 0 0)
(82.1691 0 0)
(82.5509 0 0)
(82.9323 0 0)
(83.3163 0 0)
(83.6986 0 0)
(84.0854 0 0)
(84.4682 0 0)
(84.8585 0 0)
(85.2409 0 0)
(85.6358 0 0)
(86.0167 0 0)
(86.4173 0 0)
(86.7959 0 0)
(87.2032 0 0)
(87.5787 0 0)
(87.9929 0 0)
(88.3659 0 0)
(88.7861 0 0)
(89.1583 0 0)
(89.5824 0 0)
(89.9564 0 0)
(90.3813 0 0)
(90.7608 0 0)
(91.1829 0 0)
(91.5717 0 0)
(91.9869 0 0)
(92.3895 0 0)
(92.7933 0 0)
(93.2147 0 0)
(93.6018 0 0)
(94.048 0 0)
(94.4121 0 0)
(94.8894 0 0)
(95.2255 0 0)
(95.7371 0 0)
(96.0446 0 0)
(96.5876 0 0)
(96.8737 0 0)
(97.4356 0 0)
(97.7173 0 0)
(98.2833 0 0)
(98.569 0 0)
(99.139 0 0)
(99.4256 0 0)
(100 0 0)
(100.29 0 0)
(100.868 0 0)
(101.159 0 0)
(101.743 0 0)
(102.036 0 0)
(102.624 0 0)
(102.92 0 0)
(103.513 0 0)
(103.811 0 0)
(104.408 0 0)
(104.709 0 0)
(105.312 0 0)
(105.616 0 0)
(106.224 0 0)
(106.53 0 0)
(107.143 0 0)
(107.453 0 0)
(108.072 0 0)
(108.384 0 0)
(109.009 0 0)
(109.324 0 0)
(109.956 0 0)
(110.275 0 0)
(110.912 0 0)
(111.238 0 0)
(111.872 0 0)
(112.218 0 0)
(112.836 0 0)
(113.214 0 0)
(113.809 0 0)
(114.22 0 0)
(114.797 0 0)
(115.234 0 0)
(115.801 0 0)
(116.257 0 0)
(116.818 0 0)
(117.293 0 0)
(117.849 0 0)
(118.343 0 0)
(118.894 0 0)
(119.404 0 0)
(119.958 0 0)
(120.478 0 0)
(121.039 0 0)
(121.567 0 0)
(122.137 0 0)
(122.673 0 0)
(123.251 0 0)
(123.797 0 0)
(124.384 0 0)
(124.94 0 0)
(125.536 0 0)
(126.103 0 0)
(126.708 0 0)
(127.288 0 0)
(127.902 0 0)
(128.495 0 0)
(129.12 0 0)
(129.726 0 0)
(130.364 0 0)
(130.982 0 0)
(131.635 0 0)
(132.267 0 0)
(132.934 0 0)
(133.582 0 0)
(134.264 0 0)
(134.93 0 0)
(135.628 0 0)
(136.313 0 0)
(137.03 0 0)
(137.735 0 0)
(138.472 0 0)
(139.199 0 0)
(139.959 0 0)
(140.709 0 0)
(141.496 0 0)
(142.272 0 0)
(143.088 0 0)
(143.891 0 0)
(144.742 0 0)
(145.576 0 0)
(146.465 0 0)
(147.336 0 0)
(148.265 0 0)
(149.179 0 0)
(150.152 0 0)
(151.116 0 0)
(152.136 0 0)
(153.158 0 0)
(154.229 0 0)
(155.31 0 0)
(156.436 0 0)
(157.575 0 0)
(158.756 0 0)
(159.945 0 0)
(161.171 0 0)
(162.392 0 0)
(163.632 0 0)
(164.838 0 0)
(166.03 0 0)
(167.114 0 0)
(168.131 0 0)
(169.039 0 0)
(169.879 0 0)
(170.647 0 0)
(171.372 0 0)
(172.068 0 0)
(172.75 0 0)
(173.436 0 0)
(174.127 0 0)
(174.834 0 0)
(175.558 0 0)
(176.295 0 0)
(177.051 0 0)
(177.81 0 0)
(178.585 0 0)
(179.353 0 0)
(180.13 0 0)
(180.897 0 0)
(181.666 0 0)
(182.427 0 0)
(183.182 0 0)
(183.936 0 0)
(184.678 0 0)
(185.425 0 0)
(186.159 0 0)
(186.902 0 0)
(187.633 0 0)
(188.372 0 0)
(189.102 0 0)
(189.835 0 0)
(190.562 0 0)
(191.292 0 0)
(192.012 0 0)
(192.74 0 0)
(193.449 0 0)
(194.176 0 0)
(194.871 0 0)
(195.596 0 0)
(196.276 0 0)
(196.996 0 0)
(197.667 0 0)
(198.376 0 0)
(199.045 0 0)
(199.738 0 0)
(200.406 0 0)
(201.082 0 0)
(201.751 0 0)
(202.412 0 0)
(203.078 0 0)
(203.725 0 0)
(204.385 0 0)
(205.022 0 0)
(205.674 0 0)
(206.302 0 0)
(206.945 0 0)
(207.564 0 0)
(208.195 0 0)
(208.804 0 0)
(209.423 0 0)
(210.026 0 0)
(210.63 0 0)
(211.227 0 0)
(211.811 0 0)
(212.399 0 0)
(212.962 0 0)
(213.537 0 0)
(214.085 0 0)
(214.639 0 0)
(215.176 0 0)
(215.698 0 0)
(216.231 0 0)
(216.713 0 0)
(217.234 0 0)
(217.684 0 0)
(218.178 0 0)
(218.602 0 0)
(219.049 0 0)
(219.456 0 0)
(219.849 0 0)
(220.224 0 0)
(220.572 0 0)
(220.911 0 0)
(221.196 0 0)
(221.488 0 0)
(221.702 0 0)
(221.908 0 0)
(222.027 0 0)
(222.057 0 0)
(222.108 0 0)
(222.117 0 0)
(222.109 0 0)
(222.243 0 0)
(222.178 0 0)
(221.603 0 0)
(220.421 0 0)
(217.761 0 0)
(217.254 0 0)
)
;

boundaryField
{
    sideLeft
    {
        type            symmetryPlane;
    }
    sideRight
    {
        type            zeroGradient;
    }
    topbottom
    {
        type            empty;
    }
    frontback
    {
        type            empty;
    }
}


// ************************************************************************* //
