/*--------------------------------*- C++ -*----------------------------------*\
| =========                 |                                                 |
| \\      /  F ield         | OpenFOAM: The Open Source CFD Toolbox           |
|  \\    /   O peration     | Version:  2.4.0                                 |
|   \\  /    A nd           | Web:      www.OpenFOAM.org                      |
|    \\/     M anipulation  |                                                 |
\*---------------------------------------------------------------------------*/
FoamFile
{
    version     2.0;
    format      ascii;
    class       volVectorField;
    location    "0.16";
    object      U.waterMean;
}
// * * * * * * * * * * * * * * * * * * * * * * * * * * * * * * * * * * * * * //

dimensions      [0 1 -1 0 0 0 0];

internalField   nonuniform List<vector> 
1000
(
(-6.68346e-14 0 0)
(-3.10465e-14 0 0)
(-6.79987e-14 0 0)
(-2.61217e-14 0 0)
(-8.002e-14 0 0)
(-1.39626e-14 0 0)
(-5.242e-14 0 0)
(-3.7681e-14 0 0)
(-3.83204e-14 0 0)
(-3.12818e-14 0 0)
(-3.28049e-14 0 0)
(-6.5605e-14 0 0)
(-1.27102e-14 0 0)
(-6.86557e-14 0 0)
(-2.78044e-15 0 0)
(-4.99952e-14 0 0)
(6.33681e-15 0 0)
(-2.85636e-14 0 0)
(2.81459e-14 0 0)
(-5.02703e-14 0 0)
(3.69165e-14 0 0)
(-4.26543e-14 0 0)
(-1.53924e-14 0 0)
(-5.32951e-14 0 0)
(-6.02273e-14 0 0)
(-6.13465e-14 0 0)
(-7.31814e-14 0 0)
(-5.92063e-14 0 0)
(-1.1092e-13 0 0)
(-4.81043e-14 0 0)
(-9.66335e-14 0 0)
(-9.00124e-14 0 0)
(-7.76447e-14 0 0)
(-1.04316e-13 0 0)
(-5.48722e-14 0 0)
(-1.41499e-13 0 0)
(-2.26672e-14 0 0)
(-1.14055e-13 0 0)
(-4.83174e-14 0 0)
(-1.07762e-13 0 0)
(-7.14144e-14 0 0)
(-1.04343e-13 0 0)
(-9.44135e-14 0 0)
(-1.02802e-13 0 0)
(-8.642e-14 0 0)
(-9.8006e-14 0 0)
(-1.05835e-13 0 0)
(-9.30634e-14 0 0)
(-1.09623e-13 0 0)
(-1.00595e-13 0 0)
(-1.13567e-13 0 0)
(-8.89247e-14 0 0)
(-9.60252e-14 0 0)
(-7.7738e-14 0 0)
(-7.5455e-14 0 0)
(-6.08537e-14 0 0)
(-6.43752e-14 0 0)
(-5.77672e-14 0 0)
(-8.41769e-14 0 0)
(-6.14667e-14 0 0)
(-9.95422e-14 0 0)
(-2.17919e-14 0 0)
(-6.54808e-14 0 0)
(-6.90868e-14 0 0)
(-3.30937e-14 0 0)
(-5.00976e-14 0 0)
(-1.8834e-14 0 0)
(-3.17791e-14 0 0)
(-4.32541e-14 0 0)
(-2.81822e-14 0 0)
(-6.24165e-14 0 0)
(-4.81928e-14 0 0)
(-7.90875e-14 0 0)
(-4.1376e-14 0 0)
(-5.26557e-14 0 0)
(-7.25017e-14 0 0)
(-4.26152e-14 0 0)
(-7.192e-14 0 0)
(-7.00017e-14 0 0)
(-5.81713e-14 0 0)
(-6.97886e-14 0 0)
(-4.30457e-14 0 0)
(-5.4756e-14 0 0)
(-1.17509e-14 0 0)
(-7.36918e-14 0 0)
(-1.57832e-14 0 0)
(-6.56183e-14 0 0)
(-2.60817e-14 0 0)
(-5.36193e-14 0 0)
(-5.90326e-14 0 0)
(-2.99185e-14 0 0)
(-3.99281e-14 0 0)
(-4.60164e-14 0 0)
(-4.35875e-14 0 0)
(-6.85006e-14 0 0)
(-4.56129e-14 0 0)
(-1.10031e-13 0 0)
(-3.23081e-14 0 0)
(-1.03392e-13 0 0)
(-7.43718e-14 0 0)
(-9.93248e-14 0 0)
(-6.41355e-14 0 0)
(-8.82849e-14 0 0)
(-7.16228e-14 0 0)
(-9.2002e-14 0 0)
(-8.74676e-14 0 0)
(-6.66226e-14 0 0)
(-7.95631e-14 0 0)
(-1.04405e-13 0 0)
(-7.55709e-14 0 0)
(-1.13456e-13 0 0)
(-6.30565e-14 0 0)
(-8.97946e-14 0 0)
(-7.49047e-14 0 0)
(-7.66896e-14 0 0)
(-5.75006e-14 0 0)
(-3.20144e-14 0 0)
(-9.19714e-15 0 0)
(1.5321e-14 0 0)
(-2.65962e-14 0 0)
(4.22815e-14 0 0)
(1.02808e-14 0 0)
(7.2595e-14 0 0)
(3.06913e-14 0 0)
(6.91e-14 0 0)
(8.73995e-15 0 0)
(5.97386e-14 0 0)
(1.64849e-14 0 0)
(7.19375e-14 0 0)
(-6.62072e-15 0 0)
(6.65328e-14 0 0)
(-1.32111e-14 0 0)
(3.78406e-14 0 0)
(1.20617e-14 0 0)
(5.27087e-14 0 0)
(2.68632e-14 0 0)
(4.60209e-14 0 0)
(5.52536e-14 0 0)
(6.77235e-14 0 0)
(7.83374e-14 0 0)
(5.11991e-14 0 0)
(7.06987e-14 0 0)
(2.48117e-14 0 0)
(5.86549e-14 0 0)
(2.42515e-15 0 0)
(6.08488e-14 0 0)
(2.41585e-14 0 0)
(3.49276e-14 0 0)
(3.71702e-14 0 0)
(3.32534e-14 0 0)
(1.7426e-14 0 0)
(4.80514e-15 0 0)
(2.38922e-15 0 0)
(2.11032e-14 0 0)
(2.58592e-14 0 0)
(5.47517e-14 0 0)
(1.05828e-14 0 0)
(4.03454e-14 0 0)
(-3.24175e-15 0 0)
(2.78975e-14 0 0)
(-1.57025e-14 0 0)
(6.22076e-14 0 0)
(1.426e-14 0 0)
(5.08968e-14 0 0)
(2.7636e-14 0 0)
(6.77721e-14 0 0)
(8.53045e-16 0 0)
(6.43348e-14 0 0)
(6.22193e-15 0 0)
(1.89182e-14 0 0)
(1.01386e-14 0 0)
(1.67642e-14 0 0)
(-2.08256e-15 0 0)
(3.08461e-14 0 0)
(-1.53562e-14 0 0)
(2.63696e-14 0 0)
(-3.69567e-14 0 0)
(3.39013e-14 0 0)
(-3.14901e-14 0 0)
(-2.36477e-14 0 0)
(-1.95133e-14 0 0)
(-2.20845e-14 0 0)
(1.64069e-16 0 0)
(-5.47379e-14 0 0)
(2.04408e-14 0 0)
(-6.12527e-14 0 0)
(2.279e-14 0 0)
(-8.32835e-14 0 0)
(4.618e-14 0 0)
(-4.55406e-14 0 0)
(5.28771e-14 0 0)
(-3.67789e-14 0 0)
(5.17892e-14 0 0)
(-3.161e-14 0 0)
(2.60856e-14 0 0)
(-2.7298e-14 0 0)
(6.96774e-15 0 0)
(-9.80547e-15 0 0)
(2.29993e-14 0 0)
(-2.52685e-14 0 0)
(2.48997e-14 0 0)
(-4.92356e-14 0 0)
(4.74948e-14 0 0)
(-2.0641e-14 0 0)
(1.13242e-14 0 0)
(9.44145e-15 0 0)
(4.57587e-14 0 0)
(2.79244e-14 0 0)
(1.86031e-14 0 0)
(4.73976e-14 0 0)
(4.72866e-14 0 0)
(7.32523e-14 0 0)
(3.56518e-14 0 0)
(9.79702e-14 0 0)
(5.4983e-14 0 0)
(1.17861e-13 0 0)
(8.12108e-14 0 0)
(9.06564e-14 0 0)
(9.02523e-14 0 0)
(8.40483e-14 0 0)
(9.85389e-14 0 0)
(7.02284e-14 0 0)
(1.01528e-13 0 0)
(8.3653e-14 0 0)
(7.46295e-14 0 0)
(1.03615e-13 0 0)
(1.09339e-13 0 0)
(8.40353e-14 0 0)
(1.04427e-13 0 0)
(8.8023e-14 0 0)
(5.26557e-14 0 0)
(6.72661e-14 0 0)
(2.06593e-14 0 0)
(8.03753e-14 0 0)
(1.12626e-14 0 0)
(1.02438e-13 0 0)
(2.32618e-14 0 0)
(7.96603e-14 0 0)
(8.89537e-15 0 0)
(2.77956e-14 0 0)
(3.14993e-14 0 0)
(4.99864e-14 0 0)
(3.29571e-15 0 0)
(7.81325e-14 0 0)
(4.4387e-14 0 0)
(5.52268e-14 0 0)
(7.04238e-14 0 0)
(7.57526e-14 0 0)
(6.70354e-14 0 0)
(7.9403e-14 0 0)
(6.54855e-14 0 0)
(9.23348e-14 0 0)
(8.69304e-14 0 0)
(5.23229e-14 0 0)
(9.13488e-14 0 0)
(3.50924e-14 0 0)
(9.17751e-14 0 0)
(3.81032e-14 0 0)
(9.24989e-14 0 0)
(3.35382e-14 0 0)
(1.0881e-13 0 0)
(6.1338e-14 0 0)
(7.85858e-14 0 0)
(6.62314e-14 0 0)
(3.65399e-14 0 0)
(7.00725e-14 0 0)
(-2.1576e-15 0 0)
(1.06012e-13 0 0)
(1.45755e-14 0 0)
(1.26312e-13 0 0)
(4.16116e-14 0 0)
(1.20406e-13 0 0)
(4.69938e-14 0 0)
(7.82262e-14 0 0)
(6.49483e-14 0 0)
(1.03432e-13 0 0)
(4.54131e-14 0 0)
(1.20223e-13 0 0)
(5.84071e-14 0 0)
(1.1132e-13 0 0)
(1.10494e-13 0 0)
(1.27631e-13 0 0)
(1.31219e-13 0 0)
(6.9252e-14 0 0)
(1.53419e-13 0 0)
(1.07719e-13 0 0)
(1.18194e-13 0 0)
(1.24025e-13 0 0)
(1.3709e-13 0 0)
(1.08336e-13 0 0)
(1.42748e-13 0 0)
(1.29736e-13 0 0)
(1.55697e-13 0 0)
(9.85661e-14 0 0)
(1.78297e-13 0 0)
(1.26153e-13 0 0)
(1.41958e-13 0 0)
(1.45768e-13 0 0)
(1.63691e-13 0 0)
(1.13518e-13 0 0)
(1.82156e-13 0 0)
(1.32183e-13 0 0)
(1.63358e-13 0 0)
(1.50164e-13 0 0)
(1.33662e-13 0 0)
(1.67994e-13 0 0)
(1.55307e-13 0 0)
(1.39995e-13 0 0)
(1.28422e-13 0 0)
(9.4569e-14 0 0)
(1.45164e-13 0 0)
(1.03588e-13 0 0)
(1.26761e-13 0 0)
(1.1648e-13 0 0)
(1.51305e-13 0 0)
(1.40617e-13 0 0)
(1.67501e-13 0 0)
(1.36979e-13 0 0)
(1.36229e-13 0 0)
(1.71245e-13 0 0)
(1.64433e-13 0 0)
(1.57572e-13 0 0)
(1.75002e-13 0 0)
(1.54281e-13 0 0)
(1.78084e-13 0 0)
(1.42677e-13 0 0)
(1.30434e-13 0 0)
(1.45941e-13 0 0)
(1.27454e-13 0 0)
(1.40461e-13 0 0)
(1.61671e-13 0 0)
(1.76019e-13 0 0)
(1.32366e-13 0 0)
(2.03805e-13 0 0)
(1.23297e-13 0 0)
(1.95759e-13 0 0)
(1.32703e-13 0 0)
(1.41789e-13 0 0)
(1.42433e-13 0 0)
(1.38662e-13 0 0)
(1.52349e-13 0 0)
(1.27174e-13 0 0)
(1.41003e-13 0 0)
(9.63811e-14 0 0)
(1.45079e-13 0 0)
(7.34308e-14 0 0)
(1.68078e-13 0 0)
(1.00311e-13 0 0)
(1.36797e-13 0 0)
(1.0695e-13 0 0)
(1.15925e-13 0 0)
(1.13243e-13 0 0)
(1.34004e-13 0 0)
(8.73749e-14 0 0)
(1.60334e-13 0 0)
(1.06311e-13 0 0)
(1.20588e-13 0 0)
(1.25189e-13 0 0)
(1.41327e-13 0 0)
(1.34679e-13 0 0)
(1.29439e-13 0 0)
(1.11622e-13 0 0)
(1.01803e-13 0 0)
(1.20903e-13 0 0)
(1.13278e-13 0 0)
(1.39595e-13 0 0)
(7.03175e-14 0 0)
(1.23599e-13 0 0)
(7.55265e-14 0 0)
(9.76241e-14 0 0)
(7.45138e-14 0 0)
(1.05062e-13 0 0)
(7.53888e-14 0 0)
(9.62606e-14 0 0)
(7.96966e-14 0 0)
(1.2228e-13 0 0)
(9.62921e-14 0 0)
(1.52207e-13 0 0)
(8.56875e-14 0 0)
(1.6104e-13 0 0)
(9.7105e-14 0 0)
(1.31783e-13 0 0)
(8.9906e-14 0 0)
(8.87335e-14 0 0)
(9.24546e-14 0 0)
(4.36769e-14 0 0)
(1.2843e-13 0 0)
(6.80217e-14 0 0)
(1.22493e-13 0 0)
(6.40914e-14 0 0)
(9.21572e-14 0 0)
(7.49224e-14 0 0)
(9.96489e-14 0 0)
(3.36758e-14 0 0)
(1.08966e-13 0 0)
(4.09144e-14 0 0)
(8.86178e-14 0 0)
(6.87276e-14 0 0)
(1.30264e-13 0 0)
(9.21264e-14 0 0)
(1.08935e-13 0 0)
(1.19695e-13 0 0)
(7.71387e-14 0 0)
(1.41393e-13 0 0)
(1.07621e-13 0 0)
(1.15778e-13 0 0)
(1.2065e-13 0 0)
(1.31059e-13 0 0)
(8.32893e-14 0 0)
(1.30957e-13 0 0)
(8.28408e-14 0 0)
(1.56541e-13 0 0)
(9.91166e-14 0 0)
(1.39697e-13 0 0)
(1.14282e-13 0 0)
(1.59082e-13 0 0)
(1.34133e-13 0 0)
(2.09574e-13 0 0)
(1.6486e-13 0 0)
(3.42374e-13 0 0)
(3.46719e-13 0 0)
(5.21605e-13 0 0)
(6.88214e-13 0 0)
(1.02211e-12 0 0)
(1.44384e-12 0 0)
(2.09061e-12 0 0)
(3.11422e-12 0 0)
(4.54519e-12 0 0)
(6.75694e-12 0 0)
(9.96348e-12 0 0)
(1.4805e-11 0 0)
(2.18099e-11 0 0)
(3.21467e-11 0 0)
(4.72724e-11 0 0)
(6.93033e-11 0 0)
(1.01279e-10 0 0)
(1.47666e-10 0 0)
(2.14617e-10 0 0)
(3.111e-10 0 0)
(4.49525e-10 0 0)
(6.47735e-10 0 0)
(9.30344e-10 0 0)
(1.3323e-09 0 0)
(1.90202e-09 0 0)
(2.70696e-09 0 0)
(3.84059e-09 0 0)
(5.43194e-09 0 0)
(7.65867e-09 0 0)
(1.07641e-08 0 0)
(1.5081e-08 0 0)
(2.1062e-08 0 0)
(2.9321e-08 0 0)
(4.0688e-08 0 0)
(5.62796e-08 0 0)
(7.75943e-08 0 0)
(1.06634e-07 0 0)
(1.46064e-07 0 0)
(1.99417e-07 0 0)
(2.71364e-07 0 0)
(3.68048e-07 0 0)
(4.97522e-07 0 0)
(6.70301e-07 0 0)
(9.00059e-07 0 0)
(1.20451e-06 0 0)
(1.6065e-06 0 0)
(2.13539e-06 0 0)
(2.82874e-06 0 0)
(3.73442e-06 0 0)
(4.91316e-06 0 0)
(6.4417e-06 0 0)
(8.41659e-06 0 0)
(1.09588e-05 0 0)
(1.42192e-05 0 0)
(1.83851e-05 0 0)
(2.36881e-05 0 0)
(3.04135e-05 0 0)
(3.89103e-05 0 0)
(4.96047e-05 0 0)
(6.30139e-05 0 0)
(7.97627e-05 0 0)
(0.000100603 0 0)
(0.000126433 0 0)
(0.000158326 0 0)
(0.000197551 0 0)
(0.000245606 0 0)
(0.000304249 0 0)
(0.000375533 0 0)
(0.000461844 0 0)
(0.000565938 0 0)
(0.000690985 0 0)
(0.000840614 0 0)
(0.00101895 0 0)
(0.00123067 0 0)
(0.00148102 0 0)
(0.00177591 0 0)
(0.0021219 0 0)
(0.00252625 0 0)
(0.00299697 0 0)
(0.00354286 0 0)
(0.00417348 0 0)
(0.00489921 0 0)
(0.00573125 0 0)
(0.0066816 0 0)
(0.00776308 0 0)
(0.00898926 0 0)
(0.0103745 0 0)
(0.0119339 0 0)
(0.0136831 0 0)
(0.0156386 0 0)
(0.0178173 0 0)
(0.0202365 0 0)
(0.0229141 0 0)
(0.0258683 0 0)
(0.0291175 0 0)
(0.0326803 0 0)
(0.0365755 0 0)
(0.0408217 0 0)
(0.0454376 0 0)
(0.0504417 0 0)
(0.0558523 0 0)
(0.0616873 0 0)
(0.0679645 0 0)
(0.0747009 0 0)
(0.0819134 0 0)
(0.0896181 0 0)
(0.0978308 0 0)
(0.106566 0 0)
(0.11584 0 0)
(0.125664 0 0)
(0.136053 0 0)
(0.147018 0 0)
(0.158573 0 0)
(0.170727 0 0)
(0.183492 0 0)
(0.196877 0 0)
(0.210892 0 0)
(0.225544 0 0)
(0.240843 0 0)
(0.256795 0 0)
(0.273407 0 0)
(0.290685 0 0)
(0.308637 0 0)
(0.327265 0 0)
(0.346576 0 0)
(0.366575 0 0)
(0.387264 0 0)
(0.408648 0 0)
(0.430729 0 0)
(0.453512 0 0)
(0.476999 0 0)
(0.501191 0 0)
(0.526092 0 0)
(0.551703 0 0)
(0.578026 0 0)
(0.605063 0 0)
(0.632815 0 0)
(0.661283 0 0)
(0.690469 0 0)
(0.720373 0 0)
(0.750997 0 0)
(0.782341 0 0)
(0.814406 0 0)
(0.847192 0 0)
(0.880702 0 0)
(0.914934 0 0)
(0.94989 0 0)
(0.98557 0 0)
(1.02197 0 0)
(1.0591 0 0)
(1.09696 0 0)
(1.13554 0 0)
(1.17485 0 0)
(1.21489 0 0)
(1.25565 0 0)
(1.29714 0 0)
(1.33937 0 0)
(1.38232 0 0)
(1.426 0 0)
(1.47041 0 0)
(1.51555 0 0)
(1.56143 0 0)
(1.60803 0 0)
(1.65537 0 0)
(1.70345 0 0)
(1.75225 0 0)
(1.8018 0 0)
(1.85208 0 0)
(1.90309 0 0)
(1.95484 0 0)
(2.00734 0 0)
(2.06057 0 0)
(2.11454 0 0)
(2.16925 0 0)
(2.2247 0 0)
(2.2809 0 0)
(2.33784 0 0)
(2.39552 0 0)
(2.45395 0 0)
(2.51313 0 0)
(2.57305 0 0)
(2.63372 0 0)
(2.69514 0 0)
(2.75732 0 0)
(2.82024 0 0)
(2.88392 0 0)
(2.94835 0 0)
(3.01354 0 0)
(3.07948 0 0)
(3.14618 0 0)
(3.21364 0 0)
(3.28186 0 0)
(3.35084 0 0)
(3.42059 0 0)
(3.4911 0 0)
(3.56237 0 0)
(3.63441 0 0)
(3.70722 0 0)
(3.7808 0 0)
(3.85514 0 0)
(3.93026 0 0)
(4.00616 0 0)
(4.08283 0 0)
(4.16027 0 0)
(4.23849 0 0)
(4.3175 0 0)
(4.39728 0 0)
(4.47784 0 0)
(4.55919 0 0)
(4.64133 0 0)
(4.72425 0 0)
(4.80795 0 0)
(4.89245 0 0)
(4.97774 0 0)
(5.06382 0 0)
(5.1507 0 0)
(5.23837 0 0)
(5.32684 0 0)
(5.41611 0 0)
(5.50618 0 0)
(5.59706 0 0)
(5.68873 0 0)
(5.78122 0 0)
(5.87451 0 0)
(5.96861 0 0)
(6.06352 0 0)
(6.15925 0 0)
(6.25579 0 0)
(6.35314 0 0)
(6.45132 0 0)
(6.55031 0 0)
(6.65013 0 0)
(6.75077 0 0)
(6.85224 0 0)
(6.95453 0 0)
(7.05766 0 0)
(7.16161 0 0)
(7.2664 0 0)
(7.37203 0 0)
(7.47849 0 0)
(7.58579 0 0)
(7.69394 0 0)
(7.80293 0 0)
(7.91276 0 0)
(8.02344 0 0)
(8.13497 0 0)
(8.24736 0 0)
(8.3606 0 0)
(8.47469 0 0)
(8.58965 0 0)
(8.70546 0 0)
(8.82214 0 0)
(8.93969 0 0)
(9.0581 0 0)
(9.17739 0 0)
(9.29755 0 0)
(9.41858 0 0)
(9.54049 0 0)
(9.66328 0 0)
(9.78696 0 0)
(9.91152 0 0)
(10.037 0 0)
(10.1633 0 0)
(10.2905 0 0)
(10.4187 0 0)
(10.5477 0 0)
(10.6776 0 0)
(10.8084 0 0)
(10.9402 0 0)
(11.0728 0 0)
(11.2064 0 0)
(11.3409 0 0)
(11.4762 0 0)
(11.6126 0 0)
(11.7498 0 0)
(11.888 0 0)
(12.027 0 0)
(12.1671 0 0)
(12.308 0 0)
(12.4499 0 0)
(12.5928 0 0)
(12.7365 0 0)
(12.8813 0 0)
(13.0269 0 0)
(13.1736 0 0)
(13.3212 0 0)
(13.4697 0 0)
(13.6192 0 0)
(13.7697 0 0)
(13.9212 0 0)
(14.0736 0 0)
(14.227 0 0)
(14.3814 0 0)
(14.5367 0 0)
(14.6931 0 0)
(14.8504 0 0)
(15.0088 0 0)
(15.1681 0 0)
(15.3285 0 0)
(15.4898 0 0)
(15.6522 0 0)
(15.8155 0 0)
(15.9799 0 0)
(16.1453 0 0)
(16.3118 0 0)
(16.4792 0 0)
(16.6477 0 0)
(16.8173 0 0)
(16.9879 0 0)
(17.1595 0 0)
(17.3322 0 0)
(17.5059 0 0)
(17.6807 0 0)
(17.8565 0 0)
(18.0334 0 0)
(18.2114 0 0)
(18.3905 0 0)
(18.5706 0 0)
(18.7519 0 0)
(18.9342 0 0)
(19.1176 0 0)
(19.3021 0 0)
(19.4877 0 0)
(19.6744 0 0)
(19.8623 0 0)
(20.0513 0 0)
(20.2413 0 0)
(20.4326 0 0)
(20.6249 0 0)
(20.8184 0 0)
(21.013 0 0)
(21.2088 0 0)
(21.4058 0 0)
(21.6039 0 0)
(21.8031 0 0)
(22.0036 0 0)
(22.2052 0 0)
(22.408 0 0)
(22.612 0 0)
(22.8172 0 0)
(23.0236 0 0)
(23.2312 0 0)
(23.44 0 0)
(23.6501 0 0)
(23.8614 0 0)
(24.0739 0 0)
(24.2876 0 0)
(24.5027 0 0)
(24.7188 0 0)
(24.9365 0 0)
(25.155 0 0)
(25.3754 0 0)
(25.5964 0 0)
(25.8194 0 0)
(26.0428 0 0)
(26.2686 0 0)
(26.4945 0 0)
(26.7231 0 0)
(26.9514 0 0)
(27.1829 0 0)
(27.4137 0 0)
(27.6481 0 0)
(27.8814 0 0)
(28.1187 0 0)
(28.3547 0 0)
(28.5947 0 0)
(28.8335 0 0)
(29.0762 0 0)
(29.318 0 0)
(29.5633 0 0)
(29.8083 0 0)
(30.056 0 0)
(30.3045 0 0)
(30.5544 0 0)
(30.8067 0 0)
(31.0586 0 0)
(31.3148 0 0)
(31.5686 0 0)
(31.829 0 0)
(32.0848 0 0)
(32.3492 0 0)
(32.607 0 0)
(32.8757 0 0)
(33.1355 0 0)
(33.4084 0 0)
(33.6703 0 0)
(33.9475 0 0)
(34.2115 0 0)
(34.4931 0 0)
(34.7592 0 0)
(35.0453 0 0)
(35.3135 0 0)
(35.6042 0 0)
(35.8746 0 0)
(36.1698 0 0)
(36.4425 0 0)
(36.7424 0 0)
(37.0174 0 0)
(37.3221 0 0)
(37.5993 0 0)
(37.9089 0 0)
(38.1885 0 0)
(38.5031 0 0)
(38.7851 0 0)
(39.1047 0 0)
(39.3891 0 0)
(39.7138 0 0)
(40.0008 0 0)
(40.3308 0 0)
(40.6203 0 0)
(40.9555 0 0)
(41.2479 0 0)
(41.5882 0 0)
(41.8837 0 0)
(42.2291 0 0)
(42.528 0 0)
(42.8784 0 0)
(43.1807 0 0)
(43.5362 0 0)
(43.8423 0 0)
(44.2029 0 0)
(44.5128 0 0)
(44.8785 0 0)
(45.1924 0 0)
(45.5634 0 0)
(45.8815 0 0)
(46.2579 0 0)
(46.5802 0 0)
(46.9621 0 0)
(47.2888 0 0)
(47.6764 0 0)
(48.0077 0 0)
(48.401 0 0)
(48.737 0 0)
(49.1363 0 0)
(49.4771 0 0)
(49.8826 0 0)
(50.2284 0 0)
(50.6403 0 0)
(50.9913 0 0)
(51.4097 0 0)
(51.7661 0 0)
(52.1914 0 0)
(52.5533 0 0)
(52.9856 0 0)
(53.3534 0 0)
(53.793 0 0)
(54.1669 0 0)
(54.6141 0 0)
(54.9943 0 0)
(55.4495 0 0)
(55.8364 0 0)
(56.2997 0 0)
(56.6937 0 0)
(57.1656 0 0)
(57.567 0 0)
(58.048 0 0)
(58.4573 0 0)
(58.9476 0 0)
(59.3654 0 0)
(59.8657 0 0)
(60.2925 0 0)
(60.8032 0 0)
(61.2398 0 0)
(61.7616 0 0)
(62.2085 0 0)
(62.7421 0 0)
(63.2001 0 0)
(63.7464 0 0)
(64.2163 0 0)
(64.776 0 0)
(65.2585 0 0)
(65.8321 0 0)
(66.3276 0 0)
(66.9152 0 0)
(67.4235 0 0)
(68.0243 0 0)
(68.5436 0 0)
(69.1546 0 0)
(69.6801 0 0)
(70.2938 0 0)
(70.8139 0 0)
(71.418 0 0)
(71.907 0 0)
(72.4747 0 0)
(72.9305 0 0)
(73.4718 0 0)
(73.9103 0 0)
(74.4432 0 0)
(74.8802 0 0)
(75.418 0 0)
(75.8617 0 0)
(76.4092 0 0)
(76.8616 0 0)
(77.418 0 0)
(77.8775 0 0)
(78.44 0 0)
(78.9039 0 0)
(79.4702 0 0)
(79.9366 0 0)
(80.5053 0 0)
(80.9732 0 0)
(81.5441 0 0)
(82.0137 0 0)
(82.5869 0 0)
(83.0583 0 0)
(83.6342 0 0)
(84.1077 0 0)
(84.6863 0 0)
(85.1619 0 0)
(85.7433 0 0)
(86.2209 0 0)
(86.8048 0 0)
(87.2841 0 0)
(87.8704 0 0)
(88.3511 0 0)
(88.9395 0 0)
(89.4213 0 0)
(90.0116 0 0)
(90.4943 0 0)
(91.0862 0 0)
(91.5696 0 0)
(92.163 0 0)
(92.6468 0 0)
(93.2413 0 0)
(93.7252 0 0)
(94.3207 0 0)
(94.8044 0 0)
(95.4006 0 0)
(95.8838 0 0)
(96.4805 0 0)
(96.9628 0 0)
(97.5598 0 0)
(98.041 0 0)
(98.638 0 0)
(99.1176 0 0)
(99.7145 0 0)
(100.192 0 0)
(100.788 0 0)
(101.263 0 0)
(101.859 0 0)
(102.331 0 0)
(102.924 0 0)
(103.392 0 0)
(103.982 0 0)
(104.444 0 0)
(105.031 0 0)
(105.486 0 0)
(106.066 0 0)
(106.512 0 0)
(107.084 0 0)
(107.518 0 0)
(108.079 0 0)
(108.498 0 0)
(109.045 0 0)
(109.447 0 0)
(109.978 0 0)
(110.359 0 0)
(110.87 0 0)
(111.228 0 0)
(111.723 0 0)
(112.062 0 0)
(112.537 0 0)
(112.841 0 0)
(113.282 0 0)
(113.526 0 0)
(113.927 0 0)
(114.094 0 0)
(114.448 0 0)
(114.522 0 0)
(114.822 0 0)
(114.786 0 0)
(115.011 0 0)
(114.825 0 0)
(114.946 0 0)
(114.542 0 0)
(114.521 0 0)
(113.841 0 0)
(113.65 0 0)
(112.885 0 0)
(113.739 0 0)
)
;

boundaryField
{
    sideLeft
    {
        type            symmetryPlane;
    }
    sideRight
    {
        type            calculated;
        value           uniform (113.739 0 0);
    }
    topbottom
    {
        type            empty;
    }
    frontback
    {
        type            empty;
    }
}


// ************************************************************************* //
