/*--------------------------------*- C++ -*----------------------------------*\
| =========                 |                                                 |
| \\      /  F ield         | OpenFOAM: The Open Source CFD Toolbox           |
|  \\    /   O peration     | Version:  2.4.0                                 |
|   \\  /    A nd           | Web:      www.OpenFOAM.org                      |
|    \\/     M anipulation  |                                                 |
\*---------------------------------------------------------------------------*/
FoamFile
{
    version     2.0;
    format      ascii;
    class       volVectorField;
    location    "0.16";
    object      Ur;
}
// * * * * * * * * * * * * * * * * * * * * * * * * * * * * * * * * * * * * * //

dimensions      [0 1 -1 0 0 0 0];

internalField   nonuniform List<vector> 
1000
(
(-2.13163e-14 0 0)
(-3.55271e-14 0 0)
(4.26326e-14 0 0)
(3.55271e-14 0 0)
(-5.68434e-14 0 0)
(-7.10543e-15 0 0)
(-1.38651e-21 0 0)
(1.42109e-14 0 0)
(3.55271e-14 0 0)
(-4.26326e-14 0 0)
(-7.10543e-15 0 0)
(1.42109e-14 0 0)
(-3.55271e-14 0 0)
(-7.10543e-15 0 0)
(2.13163e-14 0 0)
(7.81597e-14 0 0)
(-1.42109e-14 0 0)
(-9.23706e-14 0 0)
(-2.13163e-14 0 0)
(-1.42109e-14 0 0)
(4.26326e-14 0 0)
(7.81597e-14 0 0)
(6.39488e-14 0 0)
(-7.10543e-15 0 0)
(-4.9738e-14 0 0)
(-2.13163e-14 0 0)
(7.10543e-15 0 0)
(2.84217e-14 0 0)
(-2.13163e-14 0 0)
(-5.68434e-14 0 0)
(-3.12289e-22 0 0)
(2.13163e-14 0 0)
(5.68434e-14 0 0)
(8.52651e-14 0 0)
(-6.39488e-14 0 0)
(-6.39488e-14 0 0)
(-1.56897e-21 0 0)
(-2.13163e-14 0 0)
(2.13163e-14 0 0)
(2.13163e-14 0 0)
(4.26326e-14 0 0)
(3.55271e-14 0 0)
(-7.81597e-14 0 0)
(-3.55271e-14 0 0)
(2.84217e-14 0 0)
(5.68434e-14 0 0)
(7.81597e-14 0 0)
(-4.9738e-14 0 0)
(-4.9738e-14 0 0)
(-7.10543e-15 0 0)
(-4.26326e-14 0 0)
(-1.42109e-14 0 0)
(2.13163e-14 0 0)
(1.42109e-14 0 0)
(2.84217e-14 0 0)
(3.55271e-14 0 0)
(-2.84217e-14 0 0)
(-8.52651e-14 0 0)
(7.10543e-15 0 0)
(5.68434e-14 0 0)
(7.10543e-15 0 0)
(-3.55271e-14 0 0)
(1.55477e-21 0 0)
(4.9738e-14 0 0)
(-1.42109e-14 0 0)
(8.03703e-22 0 0)
(4.9738e-14 0 0)
(-7.10543e-15 0 0)
(-6.39488e-14 0 0)
(1.42109e-14 0 0)
(7.10543e-15 0 0)
(-2.13163e-14 0 0)
(-1.42109e-14 0 0)
(-5.26351e-23 0 0)
(4.26326e-14 0 0)
(-7.10543e-15 0 0)
(-5.68434e-14 0 0)
(-3.55271e-14 0 0)
(4.9738e-14 0 0)
(-1.42109e-14 0 0)
(-4.9738e-14 0 0)
(2.84217e-14 0 0)
(2.84217e-14 0 0)
(-2.13163e-14 0 0)
(-7.10543e-14 0 0)
(2.13163e-14 0 0)
(7.10543e-14 0 0)
(-7.10543e-15 0 0)
(7.10543e-15 0 0)
(-7.10543e-15 0 0)
(-3.55271e-14 0 0)
(1.42109e-14 0 0)
(7.10543e-14 0 0)
(2.84217e-14 0 0)
(-2.13163e-14 0 0)
(-4.26326e-14 0 0)
(-4.26326e-14 0 0)
(1.42109e-14 0 0)
(2.84217e-14 0 0)
(2.13163e-14 0 0)
(1.42109e-14 0 0)
(-2.13163e-14 0 0)
(-1.42109e-14 0 0)
(2.84217e-14 0 0)
(2.46207e-21 0 0)
(2.84217e-14 0 0)
(1.42109e-14 0 0)
(-6.39488e-14 0 0)
(2.84217e-14 0 0)
(2.84217e-14 0 0)
(-9.23706e-14 0 0)
(-2.84217e-14 0 0)
(4.26326e-14 0 0)
(-7.10543e-15 0 0)
(7.10543e-15 0 0)
(-1.42109e-14 0 0)
(-2.84217e-14 0 0)
(4.26326e-14 0 0)
(1.64149e-21 0 0)
(-4.26326e-14 0 0)
(3.55271e-14 0 0)
(1.42109e-14 0 0)
(-2.84217e-14 0 0)
(-2.13163e-14 0 0)
(-1.42109e-14 0 0)
(4.26326e-14 0 0)
(7.10543e-15 0 0)
(-7.10543e-15 0 0)
(4.26326e-14 0 0)
(7.81597e-14 0 0)
(4.9738e-14 0 0)
(-5.68434e-14 0 0)
(-4.9738e-14 0 0)
(-1.42109e-14 0 0)
(-1.42109e-14 0 0)
(7.10543e-15 0 0)
(1.42109e-14 0 0)
(-3.55271e-14 0 0)
(-6.39488e-14 0 0)
(3.55271e-14 0 0)
(5.68434e-14 0 0)
(7.10543e-15 0 0)
(-7.10543e-15 0 0)
(-1.42109e-14 0 0)
(2.13163e-14 0 0)
(-1.42109e-14 0 0)
(-2.13163e-14 0 0)
(1.42109e-14 0 0)
(1.42109e-14 0 0)
(2.84217e-14 0 0)
(2.13163e-14 0 0)
(7.10543e-15 0 0)
(-3.55271e-14 0 0)
(-6.39488e-14 0 0)
(1.42109e-14 0 0)
(4.9738e-14 0 0)
(-7.10543e-15 0 0)
(-3.55271e-14 0 0)
(2.84217e-14 0 0)
(4.26326e-14 0 0)
(-1.42109e-14 0 0)
(7.10543e-15 0 0)
(-1.42109e-14 0 0)
(1.42109e-14 0 0)
(6.39488e-14 0 0)
(7.10543e-15 0 0)
(-8.52651e-14 0 0)
(-5.68434e-14 0 0)
(4.9738e-14 0 0)
(2.13163e-14 0 0)
(-1.42109e-14 0 0)
(1.42109e-14 0 0)
(1.42109e-14 0 0)
(-1.42109e-14 0 0)
(-1.42109e-14 0 0)
(4.9738e-14 0 0)
(-1.42109e-14 0 0)
(-7.10543e-14 0 0)
(-2.13163e-14 0 0)
(-7.10543e-15 0 0)
(3.55271e-14 0 0)
(6.39488e-14 0 0)
(-5.38198e-22 0 0)
(-2.84217e-14 0 0)
(-1.42109e-14 0 0)
(-4.9738e-14 0 0)
(-2.13163e-14 0 0)
(4.9738e-14 0 0)
(1.42109e-14 0 0)
(-7.10543e-15 0 0)
(2.13163e-14 0 0)
(-7.10543e-15 0 0)
(-5.68434e-14 0 0)
(2.84217e-14 0 0)
(3.55271e-14 0 0)
(7.24168e-22 0 0)
(5.04779e-22 0 0)
(-3.55271e-14 0 0)
(5.68434e-14 0 0)
(1.42109e-14 0 0)
(-8.52651e-14 0 0)
(-2.13163e-14 0 0)
(7.10543e-15 0 0)
(-2.84217e-14 0 0)
(3.55271e-14 0 0)
(4.9738e-14 0 0)
(7.10542e-15 0 0)
(7.10543e-15 0 0)
(1.42109e-14 0 0)
(7.10543e-15 0 0)
(-2.13163e-14 0 0)
(-2.13163e-14 0 0)
(4.9738e-14 0 0)
(-2.84217e-14 0 0)
(-7.10543e-14 0 0)
(2.13163e-14 0 0)
(7.10543e-15 0 0)
(7.10543e-15 0 0)
(9.43557e-22 0 0)
(2.84217e-14 0 0)
(-2.13163e-14 0 0)
(-4.9738e-14 0 0)
(2.84217e-14 0 0)
(-2.84217e-14 0 0)
(-4.9738e-14 0 0)
(3.55271e-14 0 0)
(7.10543e-15 0 0)
(-2.84217e-14 0 0)
(-4.26326e-14 0 0)
(2.13163e-14 0 0)
(4.26326e-14 0 0)
(-1.00037e-21 0 0)
(3.55271e-14 0 0)
(1.42109e-14 0 0)
(2.13163e-14 0 0)
(1.49947e-21 0 0)
(-8.52651e-14 0 0)
(-5.68434e-14 0 0)
(2.84217e-14 0 0)
(1.42109e-14 0 0)
(4.9738e-14 0 0)
(4.26326e-14 0 0)
(-3.55271e-14 0 0)
(-2.84217e-14 0 0)
(2.84217e-14 0 0)
(2.84217e-14 0 0)
(-7.10543e-15 0 0)
(1.42109e-14 0 0)
(8.52651e-14 0 0)
(-7.10543e-15 0 0)
(-1.20792e-13 0 0)
(4.8356e-22 0 0)
(5.68434e-14 0 0)
(-5.68434e-14 0 0)
(-3.55271e-14 0 0)
(4.26326e-14 0 0)
(4.26326e-14 0 0)
(4.9738e-14 0 0)
(-4.26326e-14 0 0)
(-1.35003e-13 0 0)
(1.42109e-14 0 0)
(1.20792e-13 0 0)
(-7.10543e-15 0 0)
(-4.9738e-14 0 0)
(-2.13163e-14 0 0)
(1.42109e-14 0 0)
(-7.10543e-15 0 0)
(-3.55271e-14 0 0)
(-7.10543e-15 0 0)
(-2.89383e-21 0 0)
(3.55271e-14 0 0)
(4.9738e-14 0 0)
(-7.10543e-15 0 0)
(-4.26326e-14 0 0)
(-1.42109e-14 0 0)
(1.42109e-14 0 0)
(1.42109e-14 0 0)
(4.26326e-14 0 0)
(3.55271e-14 0 0)
(1.42109e-14 0 0)
(-1.42109e-14 0 0)
(-6.39488e-14 0 0)
(-1.42109e-14 0 0)
(4.9738e-14 0 0)
(-3.55271e-14 0 0)
(-2.84217e-14 0 0)
(4.26326e-14 0 0)
(-5.68434e-14 0 0)
(-4.9738e-14 0 0)
(5.68434e-14 0 0)
(3.55271e-14 0 0)
(-7.10543e-15 0 0)
(-2.13163e-14 0 0)
(-1.42109e-14 0 0)
(8.29936e-22 0 0)
(7.10543e-15 0 0)
(3.55271e-14 0 0)
(2.84217e-14 0 0)
(-4.87735e-22 0 0)
(-2.84217e-14 0 0)
(-3.55271e-14 0 0)
(-2.13163e-14 0 0)
(4.26326e-14 0 0)
(7.10543e-15 0 0)
(-2.13163e-14 0 0)
(1.42109e-14 0 0)
(-4.9738e-14 0 0)
(-2.13163e-14 0 0)
(7.10543e-15 0 0)
(-7.10543e-15 0 0)
(-2.00074e-21 0 0)
(2.13163e-14 0 0)
(4.9738e-14 0 0)
(7.10543e-15 0 0)
(-2.13163e-14 0 0)
(-1.42109e-14 0 0)
(-3.55271e-14 0 0)
(2.84217e-14 0 0)
(1.42109e-14 0 0)
(-7.81597e-14 0 0)
(7.10543e-14 0 0)
(7.10543e-14 0 0)
(-2.13163e-14 0 0)
(4.26326e-14 0 0)
(5.68434e-14 0 0)
(-7.10543e-15 0 0)
(-6.39488e-14 0 0)
(-2.13163e-14 0 0)
(2.13163e-14 0 0)
(8.16401e-22 0 0)
(3.55271e-14 0 0)
(2.84217e-14 0 0)
(-3.55271e-14 0 0)
(2.84217e-14 0 0)
(4.9738e-14 0 0)
(-2.13163e-14 0 0)
(-4.9738e-14 0 0)
(7.10543e-15 0 0)
(2.13163e-14 0 0)
(-2.13163e-14 0 0)
(-4.9738e-14 0 0)
(-4.26326e-14 0 0)
(2.84217e-14 0 0)
(6.39488e-14 0 0)
(7.10543e-15 0 0)
(-2.84217e-14 0 0)
(-2.1994e-21 0 0)
(2.13163e-14 0 0)
(2.84217e-14 0 0)
(2.84217e-14 0 0)
(-1.42109e-14 0 0)
(-2.84217e-14 0 0)
(4.26326e-14 0 0)
(1.42109e-14 0 0)
(-6.39488e-14 0 0)
(-9.85808e-23 0 0)
(3.55271e-14 0 0)
(7.10543e-15 0 0)
(4.26326e-14 0 0)
(-8.71876e-22 0 0)
(-4.26326e-14 0 0)
(-2.13163e-14 0 0)
(-4.9738e-14 0 0)
(2.84217e-14 0 0)
(6.39488e-14 0 0)
(-1.42109e-14 0 0)
(-4.26326e-14 0 0)
(-8.52651e-14 0 0)
(1.42109e-14 0 0)
(9.23706e-14 0 0)
(-4.9738e-14 0 0)
(-1.42109e-14 0 0)
(4.26326e-14 0 0)
(1.42109e-14 0 0)
(1.42109e-14 0 0)
(-2.84217e-14 0 0)
(4.9738e-14 0 0)
(4.9738e-14 0 0)
(-7.10543e-15 0 0)
(-7.10543e-15 0 0)
(-1.42109e-14 0 0)
(2.84217e-14 0 0)
(4.26326e-14 0 0)
(-7.10543e-14 0 0)
(-9.23706e-14 0 0)
(4.26326e-14 0 0)
(7.10543e-14 0 0)
(1.42109e-14 0 0)
(-7.10543e-15 0 0)
(-2.13163e-14 0 0)
(-3.55271e-14 0 0)
(7.10543e-15 0 0)
(4.26326e-14 0 0)
(7.10543e-15 0 0)
(-2.13163e-14 0 0)
(1.20338e-21 0 0)
(2.13163e-14 0 0)
(-1.42109e-14 0 0)
(-4.26326e-14 0 0)
(3.6927e-23 0 0)
(5.68434e-14 0 0)
(-2.13163e-14 0 0)
(-4.26326e-14 0 0)
(-1.42109e-14 0 0)
(-2.13163e-14 0 0)
(1.42109e-14 0 0)
(2.13163e-14 0 0)
(3.55271e-14 0 0)
(-7.10542e-15 0 0)
(-1.42108e-14 0 0)
(2.13163e-14 0 0)
(-2.84217e-14 0 0)
(4.26326e-14 0 0)
(8.52651e-14 0 0)
(-2.13163e-14 0 0)
(-7.1054e-15 0 0)
(1.42109e-14 0 0)
(6.39489e-14 0 0)
(1.06581e-13 0 0)
(4.26327e-14 0 0)
(7.81599e-14 0 0)
(2.77112e-13 0 0)
(3.62377e-13 0 0)
(4.40537e-13 0 0)
(8.17125e-13 0 0)
(1.16529e-12 0 0)
(1.5703e-12 0 0)
(2.40874e-12 0 0)
(3.48877e-12 0 0)
(5.00933e-12 0 0)
(7.3257e-12 0 0)
(1.05871e-11 0 0)
(1.52412e-11 0 0)
(2.19203e-11 0 0)
(3.13492e-11 0 0)
(4.46364e-11 0 0)
(6.34444e-11 0 0)
(8.99051e-11 0 0)
(1.26917e-10 0 0)
(1.78531e-10 0 0)
(2.50339e-10 0 0)
(3.49772e-10 0 0)
(4.87099e-10 0 0)
(6.76139e-10 0 0)
(9.3499e-10 0 0)
(1.28826e-09 0 0)
(1.76896e-09 0 0)
(2.4205e-09 0 0)
(3.30002e-09 0 0)
(4.48286e-09 0 0)
(6.06742e-09 0 0)
(8.18184e-09 0 0)
(1.09924e-08 0 0)
(1.47136e-08 0 0)
(1.96205e-08 0 0)
(2.60647e-08 0 0)
(3.44936e-08 0 0)
(4.54728e-08 0 0)
(5.97143e-08 0 0)
(7.811e-08 0 0)
(1.0177e-07 0 0)
(1.32071e-07 0 0)
(1.70706e-07 0 0)
(2.19752e-07 0 0)
(2.81736e-07 0 0)
(3.59718e-07 0 0)
(4.57377e-07 0 0)
(5.79113e-07 0 0)
(7.30148e-07 0 0)
(9.16641e-07 0 0)
(1.1458e-06 0 0)
(1.42602e-06 0 0)
(1.76695e-06 0 0)
(2.17965e-06 0 0)
(2.67666e-06 0 0)
(3.27207e-06 0 0)
(3.98157e-06 0 0)
(4.82241e-06 0 0)
(5.81342e-06 0 0)
(6.9748e-06 0 0)
(8.32803e-06 0 0)
(9.89553e-06 0 0)
(1.17003e-05 0 0)
(1.37655e-05 0 0)
(1.61139e-05 0 0)
(1.8767e-05 0 0)
(2.17447e-05 0 0)
(2.50638e-05 0 0)
(2.87378e-05 0 0)
(3.27753e-05 0 0)
(3.71796e-05 0 0)
(4.19471e-05 0 0)
(4.70672e-05 0 0)
(5.25206e-05 0 0)
(5.82796e-05 0 0)
(6.43071e-05 0 0)
(7.0557e-05 0 0)
(7.69738e-05 0 0)
(8.34935e-05 0 0)
(9.00444e-05 0 0)
(9.65481e-05 0 0)
(0.000102921 0 0)
(0.000109077 0 0)
(0.000114927 0 0)
(0.000120383 0 0)
(0.000125362 0 0)
(0.000129783 0 0)
(0.000133575 0 0)
(0.000136673 0 0)
(0.000139025 0 0)
(0.000140591 0 0)
(0.000141343 0 0)
(0.000141265 0 0)
(0.000140358 0 0)
(0.000138634 0 0)
(0.000136117 0 0)
(0.000132844 0 0)
(0.000128862 0 0)
(0.000124227 0 0)
(0.000119002 0 0)
(0.000113255 0 0)
(0.00010706 0 0)
(0.00010049 0 0)
(9.36203e-05 0 0)
(8.65264e-05 0 0)
(7.92801e-05 0 0)
(7.19506e-05 0 0)
(6.46027e-05 0 0)
(5.72966e-05 0 0)
(5.00869e-05 0 0)
(4.30225e-05 0 0)
(3.61463e-05 0 0)
(2.94954e-05 0 0)
(2.31008e-05 0 0)
(1.69878e-05 0 0)
(1.11764e-05 0 0)
(5.68138e-06 0 0)
(5.1273e-07 0 0)
(-4.32375e-06 0 0)
(-8.82615e-06 0 0)
(-1.2996e-05 0 0)
(-1.68379e-05 0 0)
(-2.03589e-05 0 0)
(-2.35682e-05 0 0)
(-2.64771e-05 0 0)
(-2.90978e-05 0 0)
(-3.14442e-05 0 0)
(-3.35306e-05 0 0)
(-3.5372e-05 0 0)
(-3.69836e-05 0 0)
(-3.83811e-05 0 0)
(-3.95796e-05 0 0)
(-4.05944e-05 0 0)
(-4.14402e-05 0 0)
(-4.21314e-05 0 0)
(-4.26817e-05 0 0)
(-4.31042e-05 0 0)
(-4.34115e-05 0 0)
(-4.36153e-05 0 0)
(-4.37266e-05 0 0)
(-4.37557e-05 0 0)
(-4.37121e-05 0 0)
(-4.36046e-05 0 0)
(-4.34414e-05 0 0)
(-4.32299e-05 0 0)
(-4.29766e-05 0 0)
(-4.26878e-05 0 0)
(-4.23689e-05 0 0)
(-4.20247e-05 0 0)
(-4.16598e-05 0 0)
(-4.1278e-05 0 0)
(-4.08826e-05 0 0)
(-4.04769e-05 0 0)
(-4.00633e-05 0 0)
(-3.96442e-05 0 0)
(-3.92216e-05 0 0)
(-3.87972e-05 0 0)
(-3.83725e-05 0 0)
(-3.79488e-05 0 0)
(-3.75271e-05 0 0)
(-3.71083e-05 0 0)
(-3.66931e-05 0 0)
(-3.62822e-05 0 0)
(-3.58761e-05 0 0)
(-3.54752e-05 0 0)
(-3.50797e-05 0 0)
(-3.46901e-05 0 0)
(-3.43063e-05 0 0)
(-3.39287e-05 0 0)
(-3.35573e-05 0 0)
(-3.31921e-05 0 0)
(-3.28331e-05 0 0)
(-3.24805e-05 0 0)
(-3.21341e-05 0 0)
(-3.17939e-05 0 0)
(-3.14599e-05 0 0)
(-3.1132e-05 0 0)
(-3.08101e-05 0 0)
(-3.04941e-05 0 0)
(-3.01839e-05 0 0)
(-2.98795e-05 0 0)
(-2.95808e-05 0 0)
(-2.92875e-05 0 0)
(-2.89997e-05 0 0)
(-2.87171e-05 0 0)
(-2.84397e-05 0 0)
(-2.81674e-05 0 0)
(-2.79e-05 0 0)
(-2.76375e-05 0 0)
(-2.73796e-05 0 0)
(-2.71263e-05 0 0)
(-2.68774e-05 0 0)
(-2.66327e-05 0 0)
(-2.63923e-05 0 0)
(-2.61558e-05 0 0)
(-2.59232e-05 0 0)
(-2.56944e-05 0 0)
(-2.54692e-05 0 0)
(-2.52474e-05 0 0)
(-2.50289e-05 0 0)
(-2.48135e-05 0 0)
(-2.46012e-05 0 0)
(-2.43918e-05 0 0)
(-2.4185e-05 0 0)
(-2.39809e-05 0 0)
(-2.37792e-05 0 0)
(-2.35799e-05 0 0)
(-2.33828e-05 0 0)
(-2.31877e-05 0 0)
(-2.29946e-05 0 0)
(-2.28033e-05 0 0)
(-2.26138e-05 0 0)
(-2.24259e-05 0 0)
(-2.22396e-05 0 0)
(-2.20548e-05 0 0)
(-2.18715e-05 0 0)
(-2.16895e-05 0 0)
(-2.15088e-05 0 0)
(-2.13293e-05 0 0)
(-2.11512e-05 0 0)
(-2.09742e-05 0 0)
(-2.07984e-05 0 0)
(-2.06238e-05 0 0)
(-2.04504e-05 0 0)
(-2.02782e-05 0 0)
(-2.01072e-05 0 0)
(-1.99374e-05 0 0)
(-1.97688e-05 0 0)
(-1.96015e-05 0 0)
(-1.94354e-05 0 0)
(-1.92706e-05 0 0)
(-1.91071e-05 0 0)
(-1.8945e-05 0 0)
(-1.87842e-05 0 0)
(-1.86248e-05 0 0)
(-1.84669e-05 0 0)
(-1.83104e-05 0 0)
(-1.81553e-05 0 0)
(-1.80018e-05 0 0)
(-1.78497e-05 0 0)
(-1.76992e-05 0 0)
(-1.75502e-05 0 0)
(-1.74028e-05 0 0)
(-1.7257e-05 0 0)
(-1.71127e-05 0 0)
(-1.697e-05 0 0)
(-1.6829e-05 0 0)
(-1.66895e-05 0 0)
(-1.65516e-05 0 0)
(-1.64152e-05 0 0)
(-1.62805e-05 0 0)
(-1.61473e-05 0 0)
(-1.60156e-05 0 0)
(-1.58855e-05 0 0)
(-1.57568e-05 0 0)
(-1.56297e-05 0 0)
(-1.5504e-05 0 0)
(-1.53797e-05 0 0)
(-1.52568e-05 0 0)
(-1.51353e-05 0 0)
(-1.50151e-05 0 0)
(-1.48962e-05 0 0)
(-1.47785e-05 0 0)
(-1.46621e-05 0 0)
(-1.45469e-05 0 0)
(-1.44328e-05 0 0)
(-1.43198e-05 0 0)
(-1.42079e-05 0 0)
(-1.4097e-05 0 0)
(-1.39871e-05 0 0)
(-1.38782e-05 0 0)
(-1.37702e-05 0 0)
(-1.36632e-05 0 0)
(-1.35569e-05 0 0)
(-1.34516e-05 0 0)
(-1.3347e-05 0 0)
(-1.32433e-05 0 0)
(-1.31403e-05 0 0)
(-1.30381e-05 0 0)
(-1.29366e-05 0 0)
(-1.2836e-05 0 0)
(-1.2736e-05 0 0)
(-1.26368e-05 0 0)
(-1.25383e-05 0 0)
(-1.24405e-05 0 0)
(-1.23435e-05 0 0)
(-1.22472e-05 0 0)
(-1.21515e-05 0 0)
(-1.20567e-05 0 0)
(-1.19625e-05 0 0)
(-1.1869e-05 0 0)
(-1.17763e-05 0 0)
(-1.16843e-05 0 0)
(-1.15929e-05 0 0)
(-1.15023e-05 0 0)
(-1.14124e-05 0 0)
(-1.13232e-05 0 0)
(-1.12346e-05 0 0)
(-1.11468e-05 0 0)
(-1.10597e-05 0 0)
(-1.09733e-05 0 0)
(-1.08877e-05 0 0)
(-1.08027e-05 0 0)
(-1.07185e-05 0 0)
(-1.06349e-05 0 0)
(-1.05521e-05 0 0)
(-1.047e-05 0 0)
(-1.03887e-05 0 0)
(-1.0308e-05 0 0)
(-1.0228e-05 0 0)
(-1.01486e-05 0 0)
(-1.00699e-05 0 0)
(-9.99183e-06 0 0)
(-9.91434e-06 0 0)
(-9.83743e-06 0 0)
(-9.76107e-06 0 0)
(-9.68529e-06 0 0)
(-9.6101e-06 0 0)
(-9.53555e-06 0 0)
(-9.46172e-06 0 0)
(-9.38861e-06 0 0)
(-9.3164e-06 0 0)
(-9.24488e-06 0 0)
(-9.17444e-06 0 0)
(-9.10431e-06 0 0)
(-9.03548e-06 0 0)
(-8.96591e-06 0 0)
(-8.89841e-06 0 0)
(-8.82789e-06 0 0)
(-8.76183e-06 0 0)
(-8.68813e-06 0 0)
(-8.62513e-06 0 0)
(-8.54528e-06 0 0)
(-8.48983e-06 0 0)
(-8.39981e-06 0 0)
(-8.35981e-06 0 0)
(-8.25426e-06 0 0)
(-8.23923e-06 0 0)
(-8.11308e-06 0 0)
(-8.12751e-06 0 0)
(-7.98254e-06 0 0)
(-8.01339e-06 0 0)
(-7.87125e-06 0 0)
(-7.87467e-06 0 0)
(-7.78935e-06 0 0)
(-7.69257e-06 0 0)
(-7.73998e-06 0 0)
(-7.4799e-06 0 0)
(-7.70599e-06 0 0)
(-7.32517e-06 0 0)
(-7.66229e-06 0 0)
(-7.55208e-06 0 0)
(-7.63979e-06 0 0)
(-5.90731e-06 0 0)
(-7.03957e-06 0 0)
(-7.58822e-06 0 0)
(-8.38236e-06 0 0)
(-6.04682e-06 0 0)
(-9.17782e-06 0 0)
(-4.88833e-06 0 0)
(-9.06287e-06 0 0)
(-4.59994e-06 0 0)
(-9.7915e-06 0 0)
(-3.69809e-06 0 0)
(-9.9205e-06 0 0)
(-2.98718e-06 0 0)
(-4.84156e-06 0 0)
(-6.59281e-06 0 0)
(3.93148e-06 0 0)
(-1.7271e-05 0 0)
(-6.51246e-06 0 0)
(-8.72915e-06 0 0)
(-3.92539e-06 0 0)
(-8.53022e-06 0 0)
(-4.51115e-06 0 0)
(-3.53565e-06 0 0)
(-2.43792e-05 0 0)
(7.19098e-06 0 0)
(-3.43424e-06 0 0)
(-6.70763e-06 0 0)
(-1.56054e-05 0 0)
(4.89972e-06 0 0)
(1.73889e-06 0 0)
(-1.49241e-05 0 0)
(-4.95306e-06 0 0)
(-4.0465e-06 0 0)
(-6.46409e-06 0 0)
(-5.8612e-06 0 0)
(-5.49108e-06 0 0)
(-4.595e-06 0 0)
(-5.70911e-06 0 0)
(-5.54543e-06 0 0)
(-4.28602e-06 0 0)
(-5.78649e-06 0 0)
(-6.1417e-06 0 0)
(-4.61241e-06 0 0)
(-5.48998e-06 0 0)
(-4.70953e-06 0 0)
(-5.48436e-06 0 0)
(-3.81695e-06 0 0)
(-3.76554e-06 0 0)
(-5.19926e-06 0 0)
(-3.31023e-06 0 0)
(-7.45266e-06 0 0)
(-2.30944e-06 0 0)
(-7.03492e-06 0 0)
(4.53672e-06 0 0)
(-1.03539e-05 0 0)
(-5.93925e-06 0 0)
(-3.60093e-06 0 0)
(-1.04157e-05 0 0)
(7.6417e-07 0 0)
(-1.7551e-06 0 0)
(-7.38778e-06 0 0)
(-6.35674e-06 0 0)
(-3.31299e-06 0 0)
(-7.53656e-07 0 0)
(-6.13022e-06 0 0)
(-5.64954e-06 0 0)
(-2.2504e-06 0 0)
(-5.28449e-06 0 0)
(-3.42955e-06 0 0)
(-9.65425e-06 0 0)
(2.75868e-07 0 0)
(-5.17985e-06 0 0)
(-1.84003e-06 0 0)
(-3.11894e-06 0 0)
(-3.63396e-06 0 0)
(-3.32562e-06 0 0)
(-3.99221e-06 0 0)
(-2.16049e-06 0 0)
(-4.58348e-06 0 0)
(-2.32433e-06 0 0)
(-4.2907e-06 0 0)
(-4.71527e-06 0 0)
(-2.71791e-06 0 0)
(-5.04126e-06 0 0)
(-1.97463e-06 0 0)
(-3.83275e-06 0 0)
(-2.3426e-06 0 0)
(-3.58914e-06 0 0)
(-2.79221e-06 0 0)
(-2.21084e-06 0 0)
(-3.56552e-06 0 0)
(-1.32257e-06 0 0)
(-3.72172e-06 0 0)
(-2.84895e-06 0 0)
(-2.62685e-06 0 0)
(-3.29022e-06 0 0)
(-1.8371e-06 0 0)
(-3.18472e-06 0 0)
(-1.58099e-06 0 0)
(-3.40199e-06 0 0)
(-1.19548e-06 0 0)
(-3.24793e-06 0 0)
(-3.49207e-07 0 0)
(-3.80602e-06 0 0)
(6.21269e-07 0 0)
(-2.72116e-06 0 0)
(4.43847e-07 0 0)
(-3.28157e-07 0 0)
(-7.8681e-07 0 0)
(3.05613e-06 0 0)
(-2.22522e-06 0 0)
(5.34766e-06 0 0)
(-2.41625e-06 0 0)
(3.9011e-06 0 0)
(-6.65194e-07 0 0)
(8.96061e-07 0 0)
(2.86717e-06 0 0)
(-2.31407e-06 0 0)
(7.11682e-06 0 0)
(-1.31937e-06 0 0)
(9.63542e-06 0 0)
(2.0602e-06 0 0)
(6.99352e-06 0 0)
(-9.75696e-08 0 0)
(-1.2155e-05 0 0)
(-1.59291e-05 0 0)
(-2.82363e-05 0 0)
(-4.56806e-06 0 0)
(-1.87079e-05 0 0)
(-2.05145e-05 0 0)
(-1.41078e-05 0 0)
(-1.54349e-05 0 0)
(-1.13598e-05 0 0)
(-1.15562e-05 0 0)
(-7.06671e-06 0 0)
(-4.1837e-06 0 0)
(9.02343e-07 0 0)
(5.11223e-06 0 0)
(5.75696e-06 0 0)
(9.22757e-06 0 0)
(7.25946e-06 0 0)
(1.24258e-05 0 0)
(9.36803e-06 0 0)
(1.23482e-05 0 0)
(8.98987e-06 0 0)
(8.69111e-06 0 0)
(8.58118e-06 0 0)
(5.61188e-06 0 0)
(8.52e-06 0 0)
(4.02557e-06 0 0)
(8.54978e-06 0 0)
(6.1417e-06 0 0)
(9.33445e-06 0 0)
(9.08108e-06 0 0)
(7.63996e-06 0 0)
(1.13984e-05 0 0)
(8.63139e-06 0 0)
(1.70567e-05 0 0)
(1.28736e-05 0 0)
(1.86925e-05 0 0)
(1.4362e-05 0 0)
(1.5789e-05 0 0)
(1.91448e-05 0 0)
(1.53234e-05 0 0)
(2.5051e-05 0 0)
(1.44261e-05 0 0)
(2.68767e-05 0 0)
(1.72406e-05 0 0)
(2.81036e-05 0 0)
(2.32188e-05 0 0)
(2.48188e-05 0 0)
(2.89278e-05 0 0)
(2.33173e-05 0 0)
(3.95001e-05 0 0)
(2.51402e-05 0 0)
(4.11186e-05 0 0)
(2.60004e-05 0 0)
(4.12915e-05 0 0)
(4.19969e-05 0 0)
(4.38644e-05 0 0)
(4.81849e-05 0 0)
(3.80223e-05 0 0)
(5.1793e-05 0 0)
(4.80306e-05 0 0)
(6.15059e-05 0 0)
(5.93901e-05 0 0)
(6.81482e-05 0 0)
(6.27011e-05 0 0)
(7.38159e-05 0 0)
(6.09211e-05 0 0)
(8.28223e-05 0 0)
(8.60093e-05 0 0)
(9.77947e-05 0 0)
(0.000109191 0 0)
(8.21738e-05 0 0)
(0.000121029 0 0)
(0.000107292 0 0)
(0.000149068 0 0)
(0.000108311 0 0)
(0.000146761 0 0)
(0.00017249 0 0)
(0.000147719 0 0)
(0.000194576 0 0)
(0.000143059 0 0)
(0.000283064 0 0)
(0.000202769 0 0)
(0.000177202 0 0)
(0.000354006 0 0)
(0.000286929 0 0)
(0.000281098 0 0)
(0.000310567 0 0)
(0.000565432 0 0)
(0.000355087 0 0)
(0.000395009 0 0)
(0.000813322 0 0)
(3.16528e-05 0 0)
(0.00070311 0 0)
(0.00819986 0 0)
(-0.015745 0 0)
(0.00689213 0 0)
(0.0228328 0 0)
(0.00896197 0 0)
(0.0135003 0 0)
(0.0124029 0 0)
(0.00253176 0 0)
(-0.0227942 0 0)
(-0.00220511 0 0)
)
;

boundaryField
{
    sideLeft
    {
        type            symmetryPlane;
    }
    sideRight
    {
        type            calculated;
        value           uniform (-0.82299 0 0);
    }
    topbottom
    {
        type            empty;
    }
    frontback
    {
        type            empty;
    }
}


// ************************************************************************* //
