# Probe 0 (-45 0 0)
# Probe 1 (6 0 0)
#       Probe             0             1
#        Time
            0           0.9           0.9
        0.001           0.9      0.912925
        0.002           0.9      0.916047
        0.003           0.9      0.917845
        0.004           0.9      0.919752
        0.005           0.9      0.921294
        0.006           0.9      0.922682
        0.007           0.9      0.924108
        0.008           0.9      0.925472
        0.009           0.9      0.926599
         0.01           0.9       0.92749
        0.011           0.9      0.928374
        0.012           0.9      0.929269
        0.013           0.9      0.930182
        0.014           0.9      0.931146
        0.015           0.9      0.932095
        0.016           0.9      0.932972
        0.017           0.9      0.933798
        0.018           0.9      0.934642
        0.019           0.9      0.935575
         0.02           0.9      0.936581
        0.021           0.9      0.937658
        0.022           0.9      0.938769
        0.023           0.9      0.939894
        0.024           0.9      0.941021
        0.025           0.9       0.94218
        0.026           0.9      0.943338
        0.027           0.9      0.944464
        0.028           0.9       0.94587
        0.029           0.9      0.947474
         0.03           0.9      0.948125
        0.031           0.9      0.948872
        0.032           0.9      0.949677
        0.033           0.9      0.950201
        0.034           0.9      0.950375
        0.035           0.9      0.950554
        0.036           0.9      0.950769
        0.037           0.9      0.951409
        0.038           0.9      0.952326
        0.039           0.9      0.953102
         0.04           0.9      0.953868
        0.041           0.9      0.954693
        0.042           0.9      0.955402
        0.043           0.9      0.956126
        0.044           0.9      0.956976
        0.045           0.9      0.957903
        0.046           0.9      0.958372
        0.047           0.9      0.958603
        0.048           0.9      0.958648
        0.049           0.9      0.958643
         0.05           0.9      0.958139
        0.051           0.9      0.958138
        0.052           0.9      0.958138
        0.053           0.9      0.958138
        0.054           0.9      0.958138
        0.055           0.9      0.958138
        0.056           0.9      0.958242
        0.057           0.9      0.958471
        0.058           0.9      0.958586
        0.059           0.9      0.958696
         0.06           0.9      0.958805
        0.061           0.9       0.95891
        0.062           0.9       0.95901
        0.063           0.9      0.959106
        0.064           0.9      0.959197
        0.065           0.9      0.959285
        0.066           0.9      0.959371
        0.067           0.9      0.959454
        0.068           0.9      0.959535
        0.069           0.9      0.959614
         0.07           0.9      0.959691
        0.071           0.9      0.959766
        0.072           0.9      0.959839
        0.073           0.9      0.959907
        0.074           0.9      0.959968
        0.075           0.9      0.960023
        0.076           0.9      0.960074
        0.077           0.9      0.960121
        0.078           0.9      0.960167
        0.079           0.9      0.960213
         0.08           0.9      0.960262
        0.081           0.9      0.960313
        0.082           0.9      0.960366
        0.083           0.9       0.96042
        0.084           0.9      0.960473
        0.085           0.9      0.960526
        0.086           0.9       0.96058
        0.087           0.9      0.960634
        0.088           0.9      0.960687
        0.089           0.9      0.960735
         0.09           0.9      0.960779
        0.091           0.9      0.960817
        0.092           0.9      0.960848
        0.093           0.9      0.960876
        0.094           0.9      0.960902
        0.095           0.9      0.960929
        0.096           0.9      0.960956
        0.097           0.9      0.960983
        0.098           0.9       0.96101
        0.099           0.9      0.961036
          0.1           0.9      0.961062
        0.101           0.9      0.961085
        0.102           0.9      0.961108
        0.103           0.9      0.961133
        0.104           0.9       0.96116
        0.105           0.9      0.961189
        0.106           0.9      0.961217
        0.107           0.9      0.961244
        0.108           0.9       0.96127
        0.109           0.9      0.961295
         0.11           0.9      0.961321
        0.111           0.9      0.961345
        0.112           0.9      0.961369
        0.113           0.9      0.961393
        0.114           0.9      0.961415
        0.115           0.9      0.961438
        0.116           0.9       0.96146
        0.117           0.9      0.961482
        0.118           0.9      0.961505
        0.119           0.9      0.961527
         0.12           0.9      0.961549
        0.121           0.9       0.96157
        0.122           0.9      0.961592
        0.123           0.9      0.961613
        0.124           0.9      0.961633
        0.125           0.9      0.961653
        0.126           0.9      0.961674
        0.127           0.9      0.961694
        0.128           0.9      0.961714
        0.129           0.9      0.961733
         0.13           0.9      0.961753
        0.131           0.9      0.961772
        0.132           0.9       0.96179
        0.133           0.9      0.961809
        0.134           0.9      0.961827
        0.135           0.9      0.961845
        0.136           0.9      0.961863
        0.137           0.9      0.961881
        0.138           0.9      0.961898
        0.139           0.9      0.961915
         0.14           0.9      0.961932
        0.141           0.9      0.961949
        0.142           0.9      0.961966
        0.143           0.9      0.961982
        0.144           0.9      0.961999
        0.145           0.9      0.962015
        0.146           0.9      0.962031
        0.147           0.9      0.962047
        0.148           0.9      0.962062
        0.149           0.9      0.962078
         0.15           0.9      0.962093
        0.151           0.9      0.962109
        0.152           0.9      0.962123
        0.153           0.9      0.962138
        0.154           0.9      0.962153
        0.155           0.9      0.962168
        0.156           0.9      0.962182
        0.157           0.9      0.962197
        0.158           0.9      0.962211
        0.159           0.9      0.962225
         0.16           0.9      0.962239
        0.161           0.9      0.962253
        0.162           0.9      0.962267
        0.163           0.9      0.962281
        0.164           0.9      0.962294
        0.165           0.9      0.962308
        0.166           0.9      0.962321
        0.167           0.9      0.962335
        0.168           0.9      0.962348
        0.169           0.9      0.962361
         0.17           0.9      0.962374
        0.171           0.9      0.962387
        0.172           0.9        0.9624
        0.173           0.9      0.962413
        0.174           0.9      0.962426
        0.175           0.9      0.962438
        0.176           0.9      0.962451
        0.177           0.9      0.962463
        0.178           0.9      0.962475
        0.179           0.9      0.962488
         0.18           0.9        0.9625
        0.181           0.9      0.962512
        0.182           0.9      0.962524
        0.183           0.9      0.962536
        0.184           0.9      0.962548
        0.185           0.9      0.962559
        0.186           0.9      0.962571
        0.187           0.9      0.962583
        0.188           0.9      0.962594
        0.189           0.9      0.962606
         0.19           0.9      0.962617
        0.191           0.9      0.962628
        0.192           0.9       0.96264
        0.193           0.9      0.962651
        0.194           0.9      0.962662
        0.195           0.9      0.962673
        0.196           0.9      0.962684
        0.197           0.9      0.962695
        0.198           0.9      0.962705
        0.199           0.9      0.962716
          0.2           0.9      0.962727
        0.201           0.9      0.962738
        0.202           0.9      0.962748
        0.203           0.9      0.962759
        0.204           0.9      0.962769
        0.205           0.9       0.96278
        0.206           0.9       0.96279
        0.207           0.9        0.9628
        0.208           0.9       0.96281
        0.209           0.9       0.96282
         0.21           0.9       0.96283
        0.211           0.9       0.96284
        0.212           0.9       0.96285
        0.213           0.9       0.96286
        0.214           0.9       0.96287
        0.215           0.9       0.96288
        0.216           0.9       0.96289
        0.217           0.9        0.9629
        0.218           0.9      0.962909
        0.219           0.9      0.962919
         0.22           0.9      0.962928
        0.221           0.9      0.962938
        0.222           0.9      0.962947
        0.223           0.9      0.962957
        0.224           0.9      0.962966
        0.225           0.9      0.962975
        0.226           0.9      0.962985
        0.227           0.9      0.962994
        0.228           0.9      0.963003
        0.229           0.9      0.963012
         0.23           0.9      0.963021
        0.231           0.9       0.96303
        0.232           0.9      0.963039
        0.233           0.9      0.963048
        0.234           0.9      0.963057
        0.235           0.9      0.963066
        0.236           0.9      0.963075
        0.237           0.9      0.963084
        0.238           0.9      0.963093
        0.239           0.9      0.963101
         0.24           0.9       0.96311
        0.241           0.9      0.963118
        0.242           0.9      0.963127
        0.243           0.9      0.963136
        0.244           0.9      0.963144
        0.245           0.9      0.963153
        0.246           0.9      0.963161
        0.247           0.9      0.963169
        0.248           0.9      0.963178
        0.249           0.9      0.963186
         0.25           0.9      0.963194
        0.251           0.9      0.963203
        0.252           0.9      0.963211
        0.253           0.9      0.963219
        0.254           0.9      0.963227
        0.255           0.9      0.963234
        0.256           0.9      0.963242
        0.257           0.9       0.96325
        0.258           0.9      0.963258
        0.259           0.9      0.963266
         0.26           0.9      0.963274
        0.261           0.9      0.963282
        0.262           0.9      0.963289
        0.263           0.9      0.963297
        0.264           0.9      0.963305
        0.265           0.9      0.963313
        0.266           0.9      0.963321
        0.267           0.9      0.963329
        0.268           0.9      0.963336
        0.269           0.9      0.963344
         0.27           0.9      0.963352
        0.271           0.9       0.96336
        0.272           0.9      0.963367
        0.273           0.9      0.963375
        0.274           0.9      0.963382
        0.275           0.9       0.96339
        0.276           0.9      0.963397
        0.277           0.9      0.963405
        0.278           0.9      0.963412
        0.279           0.9       0.96342
         0.28           0.9      0.963427
        0.281           0.9      0.963435
        0.282           0.9      0.963442
        0.283           0.9      0.963449
        0.284           0.9      0.963457
        0.285           0.9      0.963464
        0.286           0.9      0.963471
        0.287           0.9      0.963478
        0.288           0.9      0.963486
        0.289           0.9      0.963493
         0.29           0.9        0.9635
        0.291           0.9      0.963507
        0.292           0.9      0.963514
        0.293           0.9      0.963521
        0.294      0.900001      0.963528
        0.295      0.900001      0.963535
        0.296      0.900001      0.963542
        0.297      0.900001      0.963549
        0.298      0.900001      0.963556
        0.299      0.900001      0.963563
          0.3      0.900002       0.96357
        0.301      0.900002      0.963577
        0.302      0.900002      0.963584
        0.303      0.900002      0.963591
        0.304      0.900003      0.963597
        0.305      0.900003      0.963604
        0.306      0.900003      0.963611
        0.307      0.900004      0.963618
        0.308      0.900004      0.963624
        0.309      0.900005      0.963631
         0.31      0.900005      0.963638
        0.311      0.900006      0.963644
        0.312      0.900007      0.963651
        0.313      0.900008      0.963658
        0.314      0.900009      0.963664
        0.315       0.90001      0.963671
        0.316      0.900011      0.963677
        0.317      0.900012      0.963684
        0.318      0.900013       0.96369
        0.319      0.900015      0.963697
         0.32      0.900016      0.963703
        0.321      0.900018       0.96371
        0.322       0.90002      0.963716
        0.323      0.900022      0.963723
        0.324      0.900024      0.963729
        0.325      0.900027      0.963735
        0.326      0.900029      0.963742
        0.327      0.900032      0.963748
        0.328      0.900036      0.963754
        0.329      0.900039      0.963761
         0.33      0.900043      0.963767
        0.331      0.900048      0.963773
        0.332      0.900052      0.963779
        0.333      0.900058      0.963786
        0.334      0.900063      0.963792
        0.335      0.900069      0.963798
        0.336      0.900076      0.963804
        0.337      0.900084       0.96381
        0.338      0.900092      0.963816
        0.339        0.9001      0.963822
         0.34       0.90011      0.963829
        0.341       0.90012      0.963835
        0.342      0.900132      0.963841
        0.343      0.900144      0.963847
        0.344      0.900158      0.963853
        0.345      0.900172      0.963859
        0.346      0.900188      0.963865
        0.347      0.900205       0.96387
        0.348      0.900224      0.963876
        0.349      0.900245      0.963882
         0.35      0.900267      0.963888
        0.351      0.900291      0.963894
        0.352      0.900317        0.9639
        0.353      0.900345      0.963906
        0.354      0.900375      0.963912
        0.355      0.900408      0.963917
        0.356      0.900443      0.963923
        0.357      0.900481      0.963929
        0.358      0.900521      0.963935
        0.359      0.900565      0.963941
         0.36      0.900612      0.963946
        0.361      0.900662      0.963952
        0.362      0.900716      0.963958
        0.363      0.900773      0.963963
        0.364      0.900834      0.963969
        0.365      0.900899      0.963975
        0.366      0.900969       0.96398
        0.367      0.901042      0.963986
        0.368       0.90112      0.963992
        0.369      0.901203      0.963997
         0.37       0.90129      0.964003
        0.371      0.901382      0.964008
        0.372      0.901479      0.964014
        0.373      0.901581       0.96402
        0.374      0.901688      0.964025
        0.375        0.9018      0.964031
        0.376      0.901917      0.964036
        0.377      0.902039      0.964042
        0.378      0.902166      0.964047
        0.379      0.902299      0.964052
         0.38      0.902437      0.964058
        0.381      0.902579      0.964063
        0.382      0.902727      0.964069
        0.383       0.90288      0.964074
        0.384      0.903038      0.964079
        0.385        0.9032      0.964085
        0.386      0.903367       0.96409
        0.387      0.903539      0.964095
        0.388      0.903715      0.964101
        0.389      0.903896      0.964106
         0.39       0.90408      0.964111
        0.391      0.904269      0.964117
        0.392      0.904461      0.964122
        0.393      0.904658      0.964127
        0.394      0.904857      0.964132
        0.395       0.90506      0.964138
        0.396      0.905266      0.964143
        0.397      0.905475      0.964148
        0.398      0.905687      0.964153
        0.399      0.905902      0.964158
          0.4      0.906119      0.964164
        0.401      0.906338      0.964169
        0.402       0.90656      0.964174
        0.403      0.906783      0.964179
        0.404      0.907009      0.964184
        0.405      0.907236      0.964189
        0.406      0.907465      0.964194
        0.407      0.907695      0.964199
        0.408      0.907927      0.964204
        0.409       0.90816      0.964209
         0.41      0.908394      0.964214
        0.411      0.908629      0.964219
        0.412      0.908866      0.964224
        0.413      0.909103      0.964229
        0.414      0.909341      0.964234
        0.415       0.90958      0.964239
        0.416       0.90982      0.964244
        0.417      0.910061      0.964249
        0.418      0.910302      0.964254
        0.419      0.910544      0.964259
         0.42      0.910787      0.964264
        0.421      0.911031      0.964269
        0.422      0.911275      0.964274
        0.423       0.91152      0.964278
        0.424      0.911766      0.964283
        0.425      0.912013      0.964288
        0.426       0.91226      0.964293
        0.427      0.912508      0.964298
        0.428      0.912758      0.964303
        0.429      0.913008      0.964307
         0.43      0.913259      0.964312
        0.431      0.913512      0.964317
        0.432      0.913766      0.964322
        0.433      0.914021      0.964326
        0.434      0.914277      0.964331
        0.435      0.914535      0.964336
        0.436      0.914794      0.964341
        0.437      0.915055      0.964345
        0.438      0.915317       0.96435
        0.439      0.915581      0.964355
         0.44      0.915847      0.964359
        0.441      0.916115      0.964364
        0.442      0.916385      0.964369
        0.443      0.916656      0.964373
        0.444       0.91693      0.964378
        0.445      0.917205      0.964382
        0.446      0.917483      0.964387
        0.447      0.917762      0.964392
        0.448      0.918044      0.964396
        0.449      0.918328      0.964401
         0.45      0.918614      0.964405
        0.451      0.918902       0.96441
        0.452      0.919191      0.964414
        0.453      0.919483      0.964419
        0.454      0.919777      0.964423
        0.455      0.920073      0.964428
        0.456       0.92037      0.964432
        0.457      0.920669      0.964437
        0.458       0.92097      0.964441
        0.459      0.921273      0.964446
         0.46      0.921577       0.96445
        0.461      0.921882      0.964455
        0.462      0.922188      0.964459
        0.463      0.922496      0.964463
        0.464      0.922805      0.964468
        0.465      0.923115      0.964472
        0.466      0.923425      0.964477
        0.467      0.923737      0.964481
        0.468      0.924048      0.964485
        0.469      0.924361       0.96449
         0.47      0.924674      0.964494
        0.471      0.924987      0.964498
        0.472        0.9253      0.964503
        0.473      0.925613      0.964507
        0.474      0.925927      0.964511
        0.475       0.92624      0.964516
        0.476      0.926552       0.96452
        0.477      0.926865      0.964524
        0.478      0.927177      0.964528
        0.479      0.927488      0.964533
         0.48      0.927799      0.964537
        0.481      0.928109      0.964541
        0.482      0.928418      0.964545
        0.483      0.928727      0.964549
        0.484      0.929034      0.964554
        0.485       0.92934      0.964558
        0.486      0.929646      0.964562
        0.487       0.92995      0.964566
        0.488      0.930252       0.96457
        0.489      0.930551      0.964574
         0.49      0.930848      0.964579
        0.491      0.931046      0.964583
        0.492      0.931329      0.964587
        0.493       0.93162      0.964591
        0.494      0.931936      0.964595
        0.495      0.932243      0.964599
        0.496      0.932553      0.964603
        0.497      0.932857      0.964607
        0.498      0.933142      0.964611
        0.499      0.933439      0.964615
          0.5      0.933734      0.964619
        0.501      0.934027      0.964624
        0.502      0.934322      0.964628
        0.503       0.93462      0.964632
        0.504      0.934905      0.964636
        0.505      0.935184       0.96464
        0.506      0.935474      0.964644
        0.507      0.935749      0.964648
        0.508      0.936028      0.964652
        0.509      0.936314      0.964655
         0.51      0.936581      0.964659
        0.511      0.936856      0.964663
        0.512      0.937126      0.964667
        0.513      0.937394      0.964671
        0.514      0.937655      0.964675
        0.515      0.937912      0.964679
        0.516      0.938166      0.964683
        0.517      0.938421      0.964687
        0.518      0.938645      0.964691
        0.519      0.938839      0.964695
         0.52      0.939029      0.964698
        0.521       0.93926      0.964702
        0.522      0.939506      0.964706
        0.523      0.939753       0.96471
        0.524      0.939993      0.964714
        0.525      0.940241      0.964718
        0.526      0.940488      0.964721
        0.527      0.940734      0.964725
        0.528      0.940981      0.964729
        0.529      0.941225      0.964733
         0.53      0.941466      0.964737
        0.531        0.9417       0.96474
        0.532      0.941939      0.964744
        0.533      0.942173      0.964748
        0.534      0.942409      0.964752
        0.535       0.94264      0.964755
        0.536       0.94287      0.964759
        0.537      0.943099      0.964763
        0.538      0.943321      0.964767
        0.539      0.943547       0.96477
         0.54      0.943771      0.964774
        0.541      0.943994      0.964778
        0.542      0.944214      0.964781
        0.543      0.944434      0.964785
        0.544       0.94465      0.964789
        0.545      0.944867      0.964792
        0.546      0.945087      0.964796
        0.547        0.9453        0.9648
        0.548       0.94551      0.964803
        0.549      0.945717      0.964807
         0.55      0.945929       0.96481
        0.551      0.946131      0.964814
        0.552      0.946337      0.964818
        0.553      0.946546      0.964821
        0.554      0.946749      0.964825
        0.555      0.946951      0.964828
        0.556      0.947146      0.964832
        0.557      0.947346      0.964836
        0.558      0.947542      0.964839
        0.559      0.947737      0.964843
         0.56      0.947927      0.964846
        0.561      0.948116       0.96485
        0.562      0.948302      0.964853
        0.563      0.948488      0.964857
        0.564      0.948673       0.96486
        0.565      0.948845      0.964864
        0.566      0.948984      0.964867
        0.567      0.949118      0.964871
        0.568      0.949253      0.964874
        0.569      0.949429      0.964878
         0.57      0.949607      0.964881
        0.571      0.949785      0.964885
        0.572      0.949959      0.964888
        0.573      0.950135      0.964892
        0.574      0.950314      0.964895
        0.575      0.950491      0.964899
        0.576      0.950666      0.964902
        0.577      0.950842      0.964906
        0.578      0.951015      0.964909
        0.579      0.951188      0.964913
         0.58      0.951359      0.964916
        0.581      0.951533       0.96492
        0.582      0.951701      0.964923
        0.583      0.951867      0.964927
        0.584      0.952038       0.96493
        0.585      0.952198      0.964934
        0.586      0.952364      0.964937
        0.587      0.952532      0.964941
        0.588      0.952691      0.964944
        0.589      0.952853      0.964948
         0.59      0.953014      0.964952
        0.591      0.953177      0.964955
        0.592      0.953337      0.964959
        0.593      0.953492      0.964963
        0.594      0.953652      0.964967
        0.595      0.953804       0.96497
        0.596      0.953959      0.964974
        0.597      0.954118      0.964978
        0.598      0.954271      0.964982
        0.599      0.954423      0.964986
          0.6      0.954572       0.96499
        0.601      0.954722      0.964994
        0.602      0.954872      0.964999
        0.603      0.955025      0.965003
        0.604      0.955172      0.965008
        0.605       0.95532      0.965012
        0.606      0.955466      0.965017
        0.607       0.95561      0.965022
        0.608      0.955756      0.965027
        0.609        0.9559      0.965032
         0.61      0.956043      0.965037
        0.611      0.956182      0.965043
        0.612      0.956323      0.965048
        0.613      0.956464      0.965054
        0.614      0.956604       0.96506
        0.615      0.956744      0.965067
        0.616      0.956882      0.965074
        0.617      0.957019      0.965081
        0.618      0.957156      0.965088
        0.619      0.957292      0.965096
         0.62      0.957427      0.965104
        0.621       0.95756      0.965113
        0.622      0.957691      0.965122
        0.623      0.957821      0.965131
        0.624       0.95795      0.965141
        0.625      0.958077      0.965152
        0.626      0.958205      0.965163
        0.627      0.958332      0.965174
        0.628       0.95843      0.965187
        0.629      0.958483        0.9652
         0.63        0.9585      0.965213
        0.631      0.958498      0.965228
        0.632      0.958493      0.965243
        0.633      0.958528      0.965259
        0.634      0.958595      0.965276
        0.635      0.958688      0.965294
        0.636      0.958809      0.965313
        0.637      0.958931      0.965332
        0.638      0.959053      0.965353
        0.639      0.959173      0.965375
         0.64      0.959292      0.965398
        0.641      0.959413      0.965421
        0.642      0.959535      0.965446
        0.643      0.959656      0.965473
        0.644      0.959776        0.9655
        0.645      0.959895      0.965528
        0.646      0.960014      0.965558
        0.647      0.960133      0.965589
        0.648       0.96025      0.965621
        0.649      0.960367      0.965654
         0.65      0.960484      0.965689
        0.651      0.960599      0.965725
        0.652      0.960717      0.965762
        0.653      0.960831        0.9658
        0.654      0.960945       0.96584
        0.655      0.961056      0.965881
        0.656       0.96117      0.965923
        0.657      0.961282      0.965966
        0.658      0.961393      0.966011
        0.659      0.961505      0.966057
         0.66      0.961615      0.966104
        0.661      0.961724      0.966152
        0.662      0.961833      0.966201
        0.663      0.961942      0.966252
        0.664       0.96205      0.966304
        0.665      0.962157      0.966358
        0.666      0.962264      0.966413
        0.667      0.962372      0.966469
        0.668      0.962477      0.966526
        0.669      0.962582      0.966583
         0.67      0.962687       0.96664
        0.671      0.962791      0.966698
        0.672      0.962895       0.96676
        0.673      0.962998       0.96681
        0.674        0.9631      0.966816
        0.675      0.963204      0.966839
        0.676      0.963306      0.966913
        0.677      0.963405      0.966986
        0.678      0.963506       0.96707
        0.679      0.963606       0.96718
         0.68      0.963706      0.967226
        0.681      0.963804      0.967226
        0.682      0.963903      0.967226
        0.683      0.964001      0.967294
        0.684      0.964099      0.967383
        0.685      0.964196      0.967467
        0.686      0.964293      0.967548
        0.687      0.964389      0.967629
        0.688      0.964484      0.967705
        0.689      0.964579      0.967794
         0.69      0.964674      0.967907
        0.691      0.964769      0.967976
        0.692      0.964862      0.968003
        0.693      0.964955      0.968057
        0.694      0.965049      0.968136
        0.695       0.96514      0.968215
        0.696      0.965232      0.968291
        0.697      0.965323      0.968367
        0.698      0.965415       0.96844
        0.699      0.965505      0.968543
          0.7      0.965594      0.968661
        0.701      0.965684      0.968723
        0.702      0.965775      0.968723
        0.703      0.965862      0.968758
        0.704      0.965952      0.968826
        0.705      0.966037      0.968898
        0.706      0.966124      0.968988
        0.707      0.966212      0.969098
        0.708      0.966298      0.969209
        0.709      0.966384      0.969297
         0.71      0.966469      0.969319
        0.711      0.966554      0.969377