# Probe 0 (-45 0 0)
# Probe 1 (6 0 0)
#       Probe             0             1
#        Time
            0         5e+06         5e+06
         0.01         5e+06   4.56214e+06
         0.02         5e+06   4.14925e+06
         0.03         5e+06   3.78509e+06
         0.04         5e+06   3.47041e+06
         0.05         5e+06     3.202e+06
         0.06         5e+06   2.97515e+06
         0.07         5e+06   2.78467e+06
         0.08         5e+06   2.62542e+06
         0.09         5e+06   2.49261e+06
          0.1         5e+06   2.38202e+06
         0.11         5e+06   2.28995e+06
         0.12         5e+06   2.21326e+06
         0.13         5e+06   2.14932e+06
         0.14         5e+06   2.09589e+06
         0.15         5e+06   2.05117e+06
         0.16         5e+06   2.01362e+06
         0.17         5e+06     1.982e+06
         0.18         5e+06   1.95529e+06
         0.19         5e+06   1.93265e+06
          0.2         5e+06   1.91341e+06
         0.21         5e+06   1.89698e+06
         0.22         5e+06   1.88291e+06
         0.23         5e+06   1.87081e+06
         0.24         5e+06   1.86038e+06
         0.25         5e+06   1.85135e+06
         0.26         5e+06   1.84351e+06
         0.27         5e+06   1.83667e+06
         0.28   4.99999e+06   1.83071e+06
         0.29   4.99766e+06   1.82548e+06
          0.3    4.9599e+06   1.82089e+06
         0.31   4.85168e+06   1.81685e+06
         0.32   4.71931e+06   1.81328e+06
         0.33   4.59335e+06   1.81013e+06
         0.34   4.47801e+06   1.80734e+06
         0.35   4.36299e+06   1.80486e+06
         0.36   4.20294e+06   1.80266e+06
         0.37   4.00317e+06    1.8007e+06
         0.38   3.80579e+06   1.79895e+06
         0.39   3.62323e+06   1.79739e+06
          0.4   3.45528e+06   1.79599e+06
         0.41    3.3001e+06   1.79474e+06
         0.42   3.15614e+06   1.79362e+06
         0.43    3.0222e+06   1.79261e+06
         0.44   2.89726e+06   1.79171e+06
         0.45   2.78046e+06   1.79089e+06
         0.46   2.67102e+06   1.79016e+06
         0.47   2.56829e+06    1.7895e+06
         0.48    2.4717e+06   1.78891e+06
         0.49   2.38074e+06   1.78837e+06
          0.5   2.29497e+06    1.7878e+06
         0.51   2.21396e+06   1.78378e+06
         0.52   2.13737e+06   1.75962e+06
         0.53   2.06487e+06   1.71181e+06
         0.54   1.99615e+06   1.65413e+06
         0.55   1.93096e+06   1.59405e+06
         0.56   1.86903e+06    1.5339e+06
         0.57   1.81017e+06   1.47452e+06
         0.58   1.75416e+06   1.41639e+06
         0.59    1.7008e+06   1.35988e+06
          0.6   1.64994e+06   1.30526e+06
         0.61   1.60141e+06   1.25273e+06
         0.62   1.55507e+06   1.20239e+06
         0.63   1.51079e+06   1.15429e+06
         0.64   1.46843e+06   1.10843e+06
         0.65    1.4279e+06   1.06478e+06
         0.66   1.38907e+06   1.02327e+06
         0.67   1.35186e+06        983856
         0.68   1.31617e+06        946436
         0.69   1.28191e+06        910925
          0.7   1.24901e+06        877231
         0.71   1.21739e+06        845259
         0.72   1.18699e+06        814918
         0.73   1.15773e+06        786114
         0.74   1.12957e+06        758762
         0.75   1.10243e+06        732778
         0.76   1.07628e+06        708079
         0.77   1.05105e+06        684591
         0.78   1.02671e+06        662241
         0.79    1.0032e+06        640962
          0.8        980494        620690
         0.81        958542        601366
         0.82        937310        582934
         0.83        916763        565342
         0.84        896867        548541
         0.85        877590        532485
         0.86        858903        517132
         0.87        840777        502442
         0.88        823185        488378
         0.89        806102        474905
          0.9        789503        461990
         0.91        773363        449604
         0.92        757653        437717
         0.93        742337        426304
         0.94        727348        415339
         0.95        712579        404799
         0.96        697751        394662
         0.97        682411        384908
         0.98        666377        375518
         0.99        649875        366472
            1        633176        357755
