# Probe 0 (-45 0 0)
# Probe 1 (6 0 0)
#       Probe             0             1
#        Time
            0         5e+06         5e+06
         0.01         5e+06   3.97592e+06
         0.02         5e+06   3.71224e+06
         0.03         5e+06   3.43224e+06
         0.04         5e+06   3.11823e+06
         0.05         5e+06    2.7509e+06
         0.06         5e+06   2.23702e+06
         0.07         5e+06   1.54629e+06
         0.08         5e+06   1.24764e+06
         0.09         5e+06    1.2054e+06
          0.1         5e+06   1.18846e+06
         0.11         5e+06   1.17828e+06
         0.12         5e+06   1.17112e+06
         0.13         5e+06   1.16524e+06
         0.14         5e+06   1.16008e+06
         0.15         5e+06   1.15542e+06
         0.16         5e+06   1.15432e+06
         0.17         5e+06   1.15189e+06
         0.18         5e+06   1.14849e+06
         0.19         5e+06   1.14483e+06
          0.2         5e+06   1.14102e+06
         0.21         5e+06   1.13696e+06
         0.22         5e+06   1.13251e+06
         0.23         5e+06   1.12748e+06
         0.24         5e+06   1.12267e+06
         0.25         5e+06   1.11648e+06
         0.26         5e+06   1.11001e+06
         0.27         5e+06   1.10369e+06
         0.28         5e+06    1.0971e+06
         0.29         5e+06   1.08986e+06
          0.3   4.99999e+06   1.08215e+06
         0.31    4.9999e+06     1.074e+06
         0.32   4.99966e+06   1.06547e+06
         0.33   4.99912e+06   1.05658e+06
         0.34   4.99791e+06   1.04737e+06
         0.35   4.99527e+06   1.03783e+06
         0.36   4.98956e+06   1.02799e+06
         0.37   4.97766e+06   1.01782e+06
         0.38   4.95471e+06   1.00702e+06
         0.39   4.91558e+06        996309
          0.4   4.85808e+06        985433
         0.41   4.78487e+06        974299
         0.42   4.70128e+06        962970
         0.43   4.61186e+06        951616
         0.44   4.51827e+06        940259
         0.45   4.41895e+06        929086
         0.46   4.31044e+06        918272
         0.47   4.19055e+06        907981
         0.48   4.06082e+06        898345
         0.49   3.92578e+06        889461
          0.5   3.79033e+06        881383
         0.51   3.65811e+06        874121
         0.52   3.53126e+06        867653
         0.53   3.41083e+06        861935
         0.54   3.29718e+06        857018
         0.55   3.19015e+06        852418
         0.56   3.08944e+06        848542
         0.57   2.99384e+06        845141
         0.58   2.90531e+06        842148
         0.59   2.82184e+06        839503
          0.6   2.74302e+06        837143
         0.61   2.66168e+06        834997
         0.62   2.58726e+06        832956
         0.63   2.52045e+06        830824
         0.64   2.45328e+06        828227
         0.65   2.38794e+06        824565
         0.66   2.32143e+06        819143
         0.67   2.25933e+06        811479
         0.68   2.20025e+06        801518
         0.69   2.14752e+06        789530
          0.7   2.09685e+06        775928
         0.71   2.04321e+06        761101
         0.72   1.99645e+06        745389
         0.73   1.94981e+06        729061
         0.74   1.90422e+06        712614
         0.75   1.86058e+06        696114
         0.76    1.8185e+06        678989
         0.77   1.77761e+06        661905
         0.78   1.73772e+06        645090
         0.79   1.69911e+06        628578
          0.8   1.66198e+06        612392
         0.81   1.62631e+06        596508
         0.82   1.59202e+06        580919
         0.83   1.55901e+06        565502
         0.84   1.52719e+06        550244
         0.85   1.49648e+06        535226
         0.86   1.46681e+06        520659
         0.87   1.43816e+06        506606
         0.88   1.41041e+06        492824
         0.89   1.38253e+06        479549
          0.9   1.35491e+06        466646
         0.91   1.32836e+06        454136
         0.92   1.30274e+06        441976
         0.93   1.27804e+06        430086
         0.94   1.25434e+06        418449
         0.95   1.23234e+06        407035
         0.96   1.20964e+06        395910
         0.97   1.18778e+06        385611
         0.98   1.16656e+06        387265
         0.99   1.14586e+06        371589
            1   1.12524e+06        356319
