# Probe 0 (-45 0 0)
# Probe 1 (6 0 0)
#       Probe             0             1
#        Time
            0         5e+06         5e+06
         0.01         5e+06   4.62109e+06
         0.02         5e+06   4.23711e+06
         0.03         5e+06   3.71495e+06
         0.04         5e+06   2.87862e+06
         0.05         5e+06   1.89587e+06
         0.06         5e+06   1.68336e+06
         0.07         5e+06   1.72408e+06
         0.08         5e+06   1.77623e+06
         0.09         5e+06   1.81618e+06
          0.1         5e+06   1.84157e+06
         0.11         5e+06   1.85429e+06
         0.12         5e+06   1.85815e+06
         0.13         5e+06   1.85664e+06
         0.14         5e+06   1.85051e+06
         0.15         5e+06   1.84091e+06
         0.16         5e+06   1.84039e+06
         0.17         5e+06   1.83748e+06
         0.18         5e+06   1.83596e+06
         0.19         5e+06   1.83463e+06
          0.2         5e+06   1.83269e+06
         0.21         5e+06   1.83471e+06
         0.22         5e+06   1.83384e+06
         0.23         5e+06   1.83316e+06
         0.24         5e+06   1.83177e+06
         0.25         5e+06   1.82786e+06
         0.26         5e+06   1.83154e+06
         0.27         5e+06    1.8306e+06
         0.28         5e+06   1.83007e+06
         0.29         5e+06   1.82999e+06
          0.3   4.99998e+06   1.83014e+06
         0.31   4.99991e+06   1.83034e+06
         0.32   4.99973e+06   1.83007e+06
         0.33   4.99934e+06   1.82836e+06
         0.34   4.99853e+06   1.83215e+06
         0.35    4.9969e+06   1.83278e+06
         0.36   4.99369e+06   1.83255e+06
         0.37   4.98752e+06   1.83249e+06
         0.38   4.97626e+06   1.83141e+06
         0.39   4.95723e+06   1.82786e+06
          0.4   4.92808e+06   1.82715e+06
         0.41   4.88798e+06   1.82968e+06
         0.42   4.83812e+06   1.82949e+06
         0.43   4.78081e+06   1.82959e+06
         0.44   4.71822e+06   1.82965e+06
         0.45   4.65149e+06   1.82962e+06
         0.46   4.58063e+06   1.82941e+06
         0.47   4.50526e+06   1.82893e+06
         0.48   4.42585e+06   1.82815e+06
         0.49   4.34419e+06   1.82784e+06
          0.5    4.2649e+06   1.83235e+06
         0.51   4.19615e+06   1.83311e+06
         0.52   4.13142e+06   1.83302e+06
         0.53   4.07268e+06   1.83207e+06
         0.54   4.02004e+06   1.82957e+06
         0.55   3.97579e+06   1.82696e+06
         0.56   3.93898e+06   1.82914e+06
         0.57   3.90907e+06   1.82986e+06
         0.58   3.88623e+06   1.82962e+06
         0.59   3.87016e+06   1.82934e+06
          0.6   3.85987e+06   1.82891e+06
         0.61    3.8539e+06   1.82823e+06
         0.62    3.8508e+06   1.82763e+06
         0.63   3.84946e+06   1.83219e+06
         0.64    3.8491e+06   1.83297e+06
         0.65   3.84927e+06   1.83303e+06
         0.66   3.84966e+06   1.83258e+06
         0.67   3.85014e+06   1.83116e+06
         0.68   3.85057e+06   1.82787e+06
         0.69   3.85096e+06   1.82673e+06
          0.7   3.85131e+06   1.82911e+06
         0.71   3.85161e+06   1.82837e+06
         0.72   3.85187e+06   1.82722e+06
         0.73    3.8521e+06   1.82538e+06
         0.74   3.85229e+06   1.82243e+06
         0.75   3.85245e+06   1.81782e+06
         0.76   3.85257e+06   1.81071e+06
         0.77   3.85266e+06   1.80031e+06
         0.78   3.85273e+06   1.78602e+06
         0.79   3.85278e+06   1.76748e+06
          0.8   3.85281e+06   1.74482e+06
         0.81   3.85282e+06   1.71871e+06
         0.82   3.85283e+06   1.69017e+06
         0.83   3.85284e+06   1.66028e+06
         0.84   3.85285e+06   1.62989e+06
         0.85   3.85286e+06   1.59634e+06
         0.86   3.85289e+06   1.55934e+06
         0.87   3.85291e+06   1.53626e+06
         0.88   3.85294e+06   1.51754e+06
         0.89   3.85296e+06   1.50061e+06
          0.9   3.85297e+06   1.48664e+06
         0.91   3.85297e+06   1.47676e+06
         0.92   3.85297e+06   1.46968e+06
         0.93   3.85296e+06   1.45667e+06
         0.94   3.85295e+06   1.44086e+06
         0.95   3.85293e+06   1.43571e+06
         0.96    3.8529e+06   1.43832e+06
         0.97   3.85284e+06   1.43874e+06
         0.98   3.85274e+06   1.44071e+06
         0.99   3.85257e+06   1.44284e+06
            1   3.85229e+06   1.44481e+06
