# Probe 0 (-45 0 0)
# Probe 1 (6 0 0)
#       Probe             0             1
#        Time
            0         5e+06         5e+06
        0.001         5e+06   4.11478e+06
        0.002         5e+06   4.00293e+06
        0.003         5e+06   3.97208e+06
        0.004         5e+06   3.94277e+06
        0.005         5e+06   3.90936e+06
        0.006         5e+06   3.87264e+06
        0.007         5e+06   3.83361e+06
        0.008         5e+06   3.79257e+06
        0.009         5e+06   3.75028e+06
         0.01         5e+06   3.70707e+06
        0.011         5e+06   3.66314e+06
        0.012         5e+06   3.61844e+06
        0.013         5e+06   3.57296e+06
        0.014         5e+06   3.52666e+06
        0.015         5e+06   3.47945e+06
        0.016         5e+06   3.43123e+06
        0.017         5e+06   3.38198e+06
        0.018         5e+06    3.3317e+06
        0.019         5e+06   3.28042e+06
         0.02         5e+06   3.22817e+06
        0.021         5e+06   3.17496e+06
        0.022         5e+06    3.1208e+06
        0.023         5e+06    3.0657e+06
        0.024         5e+06   3.00974e+06
        0.025         5e+06     2.953e+06
        0.026         5e+06    2.8956e+06
        0.027         5e+06    2.8377e+06
        0.028         5e+06    2.7795e+06
        0.029         5e+06   2.72186e+06
         0.03         5e+06   2.66537e+06
        0.031         5e+06    2.6087e+06
        0.032         5e+06   2.55271e+06
        0.033         5e+06   2.49805e+06
        0.034         5e+06   2.44511e+06
        0.035         5e+06   2.39436e+06
        0.036         5e+06    2.3462e+06
        0.037         5e+06   2.30095e+06
        0.038         5e+06   2.25884e+06
        0.039         5e+06   2.22006e+06
         0.04         5e+06   2.18467e+06
        0.041         5e+06   2.15255e+06
        0.042         5e+06   2.12357e+06
        0.043         5e+06   2.09763e+06
        0.044         5e+06    2.0746e+06
        0.045         5e+06   2.05427e+06
        0.046         5e+06    2.0364e+06
        0.047         5e+06   2.02075e+06
        0.048         5e+06   2.00706e+06
        0.049         5e+06   1.99508e+06
         0.05         5e+06   1.98457e+06
        0.051         5e+06   1.97533e+06
        0.052         5e+06   1.96728e+06
        0.053         5e+06   1.96031e+06
        0.054         5e+06   1.95427e+06
        0.055         5e+06   1.94905e+06
        0.056         5e+06   1.94456e+06
        0.057         5e+06   1.94068e+06
        0.058         5e+06   1.93734e+06
        0.059         5e+06   1.93384e+06
         0.06         5e+06   1.93029e+06
        0.061         5e+06   1.92688e+06
        0.062         5e+06   1.92376e+06
        0.063         5e+06   1.92107e+06
        0.064         5e+06   1.91857e+06
        0.065         5e+06   1.91622e+06
        0.066         5e+06   1.91401e+06
        0.067         5e+06   1.91191e+06
        0.068         5e+06    1.9099e+06
        0.069         5e+06   1.90796e+06
         0.07         5e+06    1.9061e+06
        0.071         5e+06    1.9043e+06
        0.072         5e+06   1.90257e+06
        0.073         5e+06   1.90092e+06
        0.074         5e+06   1.89933e+06
        0.075         5e+06    1.8978e+06
        0.076         5e+06   1.89633e+06
