# Probe 0 (-45 0 0)
# Probe 1 (6 0 0)
#       Probe             0             1
#        Time
            0         5e+06         5e+06
         0.01         5e+06   4.56212e+06
         0.02         5e+06   4.14939e+06
         0.03         5e+06   3.78613e+06
         0.04         5e+06   3.47314e+06
         0.05         5e+06   3.20718e+06
         0.06         5e+06   2.98368e+06
         0.07         5e+06   2.79817e+06
         0.08         5e+06    2.6458e+06
         0.09         5e+06   2.52172e+06
          0.1         5e+06   2.42162e+06
         0.11         5e+06   2.34164e+06
         0.12         5e+06   2.27835e+06
         0.13         5e+06   2.22853e+06
         0.14         5e+06   2.18964e+06
         0.15         5e+06   2.15953e+06
         0.16         5e+06   2.13638e+06
         0.17         5e+06   2.11864e+06
         0.18         5e+06   2.10508e+06
         0.19         5e+06   2.09476e+06
          0.2         5e+06   2.08682e+06
         0.21         5e+06   2.08069e+06
         0.22         5e+06   2.07585e+06
         0.23         5e+06   2.07127e+06
         0.24         5e+06   2.06543e+06
         0.25         5e+06   2.05653e+06
         0.26         5e+06    2.0423e+06
         0.27         5e+06   2.02365e+06
         0.28   4.99999e+06   2.00389e+06
         0.29   4.99766e+06   1.97896e+06
          0.3   4.95991e+06   1.95407e+06
         0.31   4.85171e+06   1.93431e+06
         0.32   4.71943e+06   1.91942e+06
         0.33   4.59361e+06   1.91132e+06
         0.34   4.47847e+06   1.91179e+06
         0.35   4.36374e+06   1.91197e+06
         0.36   4.20406e+06   1.90993e+06
         0.37   4.00474e+06   1.90689e+06
         0.38   3.80788e+06   1.90351e+06
         0.39   3.62596e+06   1.90071e+06
          0.4   3.45875e+06   1.89794e+06
         0.41    3.3044e+06   1.89548e+06
         0.42   3.16136e+06   1.89072e+06
         0.43   3.02844e+06   1.88989e+06
         0.44    2.9046e+06    1.8906e+06
         0.45   2.78898e+06    1.8919e+06
         0.46    2.6808e+06    1.8923e+06
         0.47   2.57941e+06    1.8928e+06
         0.48   2.48424e+06   1.89301e+06
         0.49   2.39479e+06   1.89293e+06
          0.5    2.3106e+06   1.89297e+06
         0.51   2.23128e+06   1.89217e+06
         0.52   2.15648e+06   1.88053e+06
         0.53   2.08588e+06   1.83947e+06
         0.54   2.01919e+06   1.77644e+06
         0.55   1.95618e+06   1.70551e+06
         0.56   1.89661e+06   1.63378e+06
         0.57   1.84029e+06   1.56443e+06
         0.58   1.78704e+06   1.49662e+06
         0.59   1.73673e+06   1.43218e+06
          0.6   1.68922e+06   1.37125e+06
         0.61   1.64443e+06   1.31306e+06
         0.62   1.60227e+06   1.25799e+06
         0.63   1.56274e+06   1.20624e+06
         0.64   1.52583e+06   1.15733e+06
         0.65   1.49161e+06   1.11103e+06
         0.66   1.46025e+06   1.06729e+06
         0.67   1.43196e+06   1.02607e+06
         0.68   1.40706e+06        987178
         0.69   1.38563e+06        950477
          0.7   1.36721e+06        915834
         0.71   1.35149e+06        883102
         0.72   1.33864e+06        852162
         0.73    1.3288e+06        822897
         0.74   1.32123e+06        795202
         0.75   1.31465e+06        768979
         0.76    1.3086e+06        744138
         0.77    1.3036e+06        720599
         0.78   1.30031e+06        698277
         0.79   1.29817e+06        677108
          0.8   1.29582e+06        657019
         0.81   1.29194e+06        637977
         0.82   1.28346e+06        619894
         0.83   1.27064e+06        602735
         0.84   1.25551e+06        586482
         0.85    1.2386e+06        571101
         0.86   1.21864e+06        556571
         0.87   1.19295e+06        542884
         0.88   1.16251e+06        530050
         0.89   1.12956e+06        518098
          0.9   1.09546e+06        507098
         0.91   1.06099e+06        497168
         0.92   1.02665e+06        488477
         0.93        992770        481184
         0.94        959619        475145
         0.95        927451        470214
         0.96        896420        466301
         0.97        866588        463204
         0.98        837960        460447
         0.99        810516        457665
            1        784222        454977
