# Probe 0 (-45 0 0)
# Probe 1 (6 0 0)
#       Probe             0             1
#        Time
            0           300           300
         0.01           300       298.753
         0.02           300       297.851
         0.03           300       296.039
         0.04           300       291.836
         0.05           300       284.384
         0.06           300       282.268
         0.07           300       282.515
         0.08           300       282.731
         0.09           300       282.887
          0.1           300        282.98
         0.11           300       283.029
         0.12           300        283.04
         0.13           300       283.023
         0.14           300       282.962
         0.15           300       282.849
         0.16           300       282.817
         0.17           300       282.806
         0.18           300       282.801
         0.19           300       282.814
          0.2           300       282.996
         0.21           300        282.99
         0.22           300       283.016
         0.23           300       283.025
         0.24           300       282.978
         0.25           300       282.887
         0.26           300       282.865
         0.27           300       282.875
         0.28           300       282.875
         0.29           300       282.873
          0.3           300       282.871
         0.31           300        282.87
         0.32       299.999       282.878
         0.33       299.997       282.903
         0.34       299.994        283.02
         0.35       299.989       283.007
         0.36       299.978       283.029
         0.37        299.96       283.026
         0.38       299.929       282.997
         0.39       299.882        282.92
          0.4       299.814       282.888
         0.41       299.727        282.88
         0.42       299.625       282.881
         0.43        299.51       282.881
         0.44       299.385       282.882
         0.45       299.247       282.884
         0.46       299.093       282.888
         0.47       298.918       282.893
         0.48       298.716       282.898
         0.49       298.472        282.92
          0.5       298.219       283.019
         0.51       298.206       283.021
         0.52       298.128       283.016
         0.53       298.033       282.994
         0.54       297.939       282.942
         0.55       297.862       282.889
         0.56       297.796       282.875
         0.57       297.745       282.879
         0.58       297.713       282.881
         0.59       297.698       282.885
          0.6       297.696       282.889
         0.61         297.7       282.894
         0.62       297.708       282.912
         0.63       297.716       283.019
         0.64       297.723       283.023
         0.65       297.729       283.021
         0.66       297.734       283.012
         0.67       297.738       282.983
         0.68        297.74       282.916
         0.69       297.741       282.884
          0.7       297.742        282.87
         0.71       297.742       282.868
         0.72       297.743       282.862
         0.73       297.743       282.852
         0.74       297.743       282.834
         0.75       297.743       282.805
         0.76       297.743        282.76
         0.77       297.743       282.695
         0.78       297.742       282.604
         0.79       297.742       282.488
          0.8       297.742       282.347
         0.81       297.742       282.185
         0.82       297.741        282.01
         0.83       297.741       281.827
         0.84       297.741       281.637
         0.85       297.741       281.519
         0.86       297.741       281.502
         0.87       297.742       281.286
         0.88       297.742       281.092
         0.89       297.742       280.897
          0.9       297.742       280.711
         0.91       297.741       280.515
         0.92       297.741       280.321
         0.93       297.741       280.424
         0.94       297.741        280.61
         0.95       297.741       280.435
         0.96       297.741       280.367
         0.97        297.74       280.315
         0.98        297.74       280.253
         0.99       297.739       280.201
            1       297.737       280.157
