# Probe 0 (-45 0 0)
# Probe 1 (6 0 0)
#       Probe             0             1
#        Time
            0           300           300
         0.01           300       296.816
         0.02           300       293.497
         0.03           300       290.181
         0.04           300       287.183
         0.05           300       284.692
         0.06           300       282.807
         0.07           300       281.557
         0.08           300        280.91
         0.09           300       280.785
          0.1           300       281.086
         0.11           300       281.707
         0.12           300       282.476
         0.13           300       283.256
         0.14           300       284.005
         0.15           300         284.7
         0.16           300       285.332
         0.17           300       285.894
         0.18           300       286.388
         0.19           300        286.82
          0.2           300       287.194
         0.21           300       287.515
         0.22           300       287.788
         0.23           300       288.002
         0.24           300       288.135
         0.25           300       288.157
         0.26           300        288.03
         0.27           300       287.782
         0.28           300       287.501
         0.29       299.986        287.09
          0.3       299.752       286.673
         0.31       299.057        286.37
         0.32       298.151       286.169
         0.33       297.233       286.117
         0.34       296.348       286.259
         0.35       295.426       286.373
         0.36       294.097       286.415
         0.37       292.338       286.419
         0.38       290.468       286.405
         0.39       288.613       286.397
          0.4       286.794       286.382
         0.41       285.012       286.368
         0.42       283.266       286.287
         0.43       281.556         286.3
         0.44       279.882       286.345
         0.45       278.244       286.397
         0.46       276.642       286.422
         0.47       275.074       286.446
         0.48        273.54       286.458
         0.49        272.04       286.462
          0.5       270.574       286.468
         0.51        269.14       286.449
         0.52       267.739       286.082
         0.53       266.371       284.656
         0.54       265.035       282.323
         0.55       263.731       279.685
         0.56       262.459       277.112
         0.57       261.219       274.734
         0.58       260.012       272.498
         0.59       258.839       270.427
          0.6       257.701       268.498
         0.61       256.599       266.664
         0.62       255.535       264.921
         0.63       254.512       263.265
         0.64       253.535       261.668
         0.65       252.608       260.117
         0.66       251.741        258.61
         0.67       250.944       257.145
         0.68        250.23       255.718
         0.69       249.605       254.326
          0.7       249.061       252.969
         0.71       248.591       251.642
         0.72       248.204       250.346
         0.73       247.904       249.079
         0.74       247.673        247.84
         0.75        247.47       246.628
         0.76       247.283       245.443
         0.77       247.128       244.286
         0.78       247.026       243.154
         0.79       246.959       242.049
          0.8       246.886        240.97
         0.81       246.765        239.92
         0.82       246.498       238.895
         0.83       246.092       237.898
         0.84       245.608       236.932
         0.85       245.061       235.998
         0.86       244.407       235.098
         0.87       243.549       234.238
         0.88       242.511       233.422
         0.89       241.358       232.659
          0.9       240.131       231.961
         0.91       238.855       231.349
         0.92       237.546       230.849
         0.93       236.214       230.486
         0.94       234.871       230.252
         0.95       233.526       230.123
         0.96       232.189       230.081
         0.97       230.863         230.1
         0.98       229.551       230.118
         0.99       228.256       230.076
            1       226.978       229.988
