# Probe 0 (-45 0 0)
# Probe 1 (6 0 0)
#       Probe             0             1
#        Time
            0           300           300
         0.01           300       296.816
         0.02           300        293.47
         0.03           300       289.992
         0.04           300        286.59
         0.05           300       283.375
         0.06           300       280.407
         0.07           300       277.717
         0.08           300       275.314
         0.09           300       273.191
          0.1           300       271.333
         0.11           300       269.719
         0.12           300       268.324
         0.13           300       267.124
         0.14           300       266.094
         0.15           300       265.211
         0.16           300       264.455
         0.17           300       263.808
         0.18           300       263.254
         0.19           300       262.778
          0.2           300       262.369
         0.21           300       262.017
         0.22           300       261.713
         0.23           300       261.449
         0.24           300       261.221
         0.25           300       261.022
         0.26           300       260.849
         0.27           300       260.698
         0.28           300       260.565
         0.29       299.986       260.448
          0.3       299.752       260.345
         0.31       299.056       260.254
         0.32        298.15       260.174
         0.33       297.231       260.103
         0.34       296.344        260.04
         0.35       295.419       259.984
         0.36       294.087       259.934
         0.37       292.323        259.89
         0.38       290.447        259.85
         0.39       288.584       259.815
          0.4       286.755       259.783
         0.41       284.961       259.754
         0.42         283.2       259.729
         0.43       281.473       259.706
         0.44        279.78       259.685
         0.45        278.12       259.667
         0.46       276.493        259.65
         0.47       274.897       259.635
         0.48       273.333       259.621
         0.49       271.799       259.609
          0.5       270.295       259.596
         0.51        268.82       259.502
         0.52       267.374       258.936
         0.53       265.955       257.795
         0.54       264.563       256.383
         0.55       263.197       254.866
         0.56       261.856       253.297
         0.57       260.541       251.691
         0.58        259.25       250.062
         0.59       257.981       248.418
          0.6       256.736       246.769
         0.61       255.513       245.123
         0.62       254.311       243.484
         0.63       253.131       241.858
         0.64        251.97       240.249
         0.65       250.829        238.66
         0.66       249.707       237.094
         0.67       248.604       235.551
         0.68       247.519       234.035
         0.69       246.451       232.544
          0.7         245.4        231.08
         0.71       244.366       229.644
         0.72       243.348       228.235
         0.73       242.345       226.853
         0.74       241.357       225.498
         0.75       240.384        224.17
         0.76       239.424       222.868
         0.77       238.479       221.591
         0.78       237.546        220.34
         0.79       236.627       219.113
          0.8        235.72       217.911
         0.81       234.824       216.732
         0.82       233.941       215.575
         0.83       233.068       214.441
         0.84       232.206       213.329
         0.85       231.355       212.237
         0.86       230.513       211.166
         0.87        229.68       210.115
         0.88       228.857       209.082
         0.89       228.042       208.069
          0.9       227.236       207.074
         0.91       226.437       206.096
         0.92       225.645       205.136
         0.93       224.858       204.192
         0.94       224.074       203.264
         0.95       223.288       202.352
         0.96       222.484       201.455
         0.97       221.636       200.573
         0.98       220.732       199.705
         0.99       219.781       198.851
            1       218.797       198.011
