# Probe 0 (-45 0 0)
# Probe 1 (6 0 0)
#       Probe             0             1
#        Time
            0             (0 0 0)             (0 0 0)
         0.01             (-1.03739e-12 0 0)             (20.684 0 0)
         0.02             (-4.26324e-14 0 0)             (41.3135 0 0)
         0.03             (-8.66862e-13 0 0)             (61.0683 0 0)
         0.04             (1.84741e-13 0 0)             (79.6762 0 0)
         0.05             (-1.98952e-13 0 0)             (96.9849 0 0)
         0.06             (-4.47642e-13 0 0)             (112.887 0 0)
         0.07             (2.98428e-13 0 0)             (127.262 0 0)
         0.08             (3.76588e-13 0 0)             (140.033 0 0)
         0.09             (1.35004e-13 0 0)             (151.183 0 0)
          0.1             (1.15819e-12 0 0)             (160.741 0 0)
         0.11             (1.06582e-13 0 0)             (168.791 0 0)
         0.12             (3.97905e-13 0 0)             (175.455 0 0)
         0.13             (6.82122e-13 0 0)             (180.906 0 0)
         0.14             (-4.26317e-14 0 0)             (185.306 0 0)
         0.15             (1.20793e-13 0 0)             (188.812 0 0)
         0.16             (-5.96855e-13 0 0)             (191.579 0 0)
         0.17             (-9.94749e-14 0 0)             (193.749 0 0)
         0.18             (-7.46069e-13 0 0)             (195.444 0 0)
         0.19             (3.55272e-13 0 0)             (196.766 0 0)
          0.2             (-3.83692e-13 0 0)             (197.805 0 0)
         0.21             (-3.05532e-13 0 0)             (198.627 0 0)
         0.22             (-1.10134e-12 0 0)             (199.29 0 0)
         0.23             (2.27375e-13 0 0)             (199.902 0 0)
         0.24             (-6.53698e-13 0 0)             (200.622 0 0)
         0.25             (-1.42093e-14 0 0)             (201.639 0 0)
         0.26             (1.42535e-11 0 0)             (203.197 0 0)
         0.27             (2.77459e-07 0 0)             (205.213 0 0)
         0.28             (0.000594964 0 0)             (207.354 0 0)
         0.29             (0.104641 0 0)             (210.065 0 0)
          0.3             (1.80012 0 0)             (212.802 0 0)
         0.31             (6.70979 0 0)             (215.014 0 0)
         0.32             (12.8208 0 0)             (216.71 0 0)
         0.33             (18.7521 0 0)             (217.667 0 0)
         0.34             (24.275 0 0)             (217.681 0 0)
         0.35             (28.9812 0 0)             (217.719 0 0)
         0.36             (30.7024 0 0)             (217.993 0 0)
         0.37             (29.6867 0 0)             (218.371 0 0)
         0.38             (28.0924 0 0)             (218.779 0 0)
         0.39             (26.6346 0 0)             (219.119 0 0)
          0.4             (25.369 0 0)             (219.451 0 0)
         0.41             (24.2542 0 0)             (219.745 0 0)
         0.42             (23.2568 0 0)             (220.289 0 0)
         0.43             (22.355 0 0)             (220.396 0 0)
         0.44             (21.533 0 0)             (220.326 0 0)
         0.45             (20.7775 0 0)             (220.192 0 0)
         0.46             (20.0777 0 0)             (220.155 0 0)
         0.47             (19.4254 0 0)             (220.107 0 0)
         0.48             (18.8139 0 0)             (220.085 0 0)
         0.49             (18.2378 0 0)             (220.098 0 0)
          0.5             (17.6923 0 0)             (220.095 0 0)
         0.51             (17.1733 0 0)             (220.046 0 0)
         0.52             (16.6768 0 0)             (219.02 0 0)
         0.53             (16.1995 0 0)             (215.77 0 0)
         0.54             (15.7383 0 0)             (211.82 0 0)
         0.55             (15.2899 0 0)             (208.574 0 0)
         0.56             (14.8509 0 0)             (206.183 0 0)
         0.57             (14.4184 0 0)             (204.389 0 0)
         0.58             (13.9887 0 0)             (203.243 0 0)
         0.59             (13.5575 0 0)             (202.422 0 0)
          0.6             (13.1204 0 0)             (201.824 0 0)
         0.61             (12.6715 0 0)             (201.498 0 0)
         0.62             (12.2035 0 0)             (201.325 0 0)
         0.63             (11.7066 0 0)             (201.215 0 0)
         0.64             (11.1681 0 0)             (201.192 0 0)
         0.65             (10.5693 0 0)             (201.252 0 0)
         0.66             (9.88482 0 0)             (201.358 0 0)
         0.67             (9.08103 0 0)             (201.477 0 0)
         0.68             (8.11954 0 0)             (201.61 0 0)
         0.69             (7.00146 0 0)             (201.745 0 0)
          0.7             (5.81969 0 0)             (201.875 0 0)
         0.71             (4.66813 0 0)             (201.999 0 0)
         0.72             (3.5942 0 0)             (202.113 0 0)
         0.73             (2.66413 0 0)             (202.217 0 0)
         0.74             (1.97971 0 0)             (202.308 0 0)
         0.75             (1.57998 0 0)             (202.386 0 0)
         0.76             (1.42913 0 0)             (202.45 0 0)
         0.77             (1.44212 0 0)             (202.5 0 0)
         0.78             (1.45664 0 0)             (202.539 0 0)
         0.79             (1.33034 0 0)             (202.565 0 0)
          0.8             (1.07655 0 0)             (202.585 0 0)
         0.81             (0.900729 0 0)             (202.591 0 0)
         0.82             (1.45634 0 0)             (202.6 0 0)
         0.83             (2.95644 0 0)             (202.61 0 0)
         0.84             (5.10474 0 0)             (202.62 0 0)
         0.85             (7.60336 0 0)             (202.636 0 0)
         0.86             (10.061 0 0)             (202.666 0 0)
         0.87             (11.911 0 0)             (202.717 0 0)
         0.88             (13.1831 0 0)             (202.801 0 0)
         0.89             (14.111 0 0)             (202.934 0 0)
          0.9             (14.7914 0 0)             (203.142 0 0)
         0.91             (15.2587 0 0)             (203.458 0 0)
         0.92             (15.5361 0 0)             (203.932 0 0)
         0.93             (15.6507 0 0)             (204.578 0 0)
         0.94             (15.6419 0 0)             (205.351 0 0)
         0.95             (15.5521 0 0)             (206.158 0 0)
         0.96             (15.4172 0 0)             (206.992 0 0)
         0.97             (15.2617 0 0)             (207.792 0 0)
         0.98             (15.0958 0 0)             (208.39 0 0)
         0.99             (14.9235 0 0)             (208.755 0 0)
            1             (14.7485 0 0)             (209.027 0 0)
