# Probe 0 (-45 0 0)
# Probe 1 (6 0 0)
#       Probe             0             1
#        Time
            0             (0 0 0)             (0 0 0)
        0.001             (9.38134e-14 0 0)             (38.931 0 0)
        0.002             (9.4247e-14 0 0)             (41.15 0 0)
        0.003             (-2.54341e-13 0 0)             (43.6208 0 0)
        0.004             (-6.28032e-13 0 0)             (45.7255 0 0)
        0.005             (-3.07878e-13 0 0)             (48.039 0 0)
        0.006             (-4.13159e-13 0 0)             (50.4482 0 0)
        0.007             (-3.71367e-13 0 0)             (52.9583 0 0)
        0.008             (3.07649e-14 0 0)             (55.6133 0 0)
        0.009             (7.16774e-13 0 0)             (58.3564 0 0)
         0.01             (6.36715e-13 0 0)             (61.2177 0 0)
        0.011             (1.49787e-13 0 0)             (64.2161 0 0)
        0.012             (3.52181e-13 0 0)             (67.3701 0 0)
        0.013             (1.66302e-13 0 0)             (70.7019 0 0)
        0.014             (3.529e-13 0 0)             (74.2247 0 0)
        0.015             (-4.82302e-13 0 0)             (77.958 0 0)
        0.016             (-1.11394e-12 0 0)             (81.9264 0 0)
        0.017             (-4.3219e-13 0 0)             (86.1527 0 0)
        0.018             (-5.24485e-13 0 0)             (90.6631 0 0)
        0.019             (-1.05848e-13 0 0)             (95.4817 0 0)
         0.02             (-3.69436e-13 0 0)             (100.635 0 0)
        0.021             (-5.64182e-13 0 0)             (106.093 0 0)
        0.022             (-2.09725e-13 0 0)             (111.705 0 0)
        0.023             (9.52882e-14 0 0)             (117.528 0 0)
        0.024             (3.57683e-13 0 0)             (123.555 0 0)
        0.025             (3.17949e-13 0 0)             (129.869 0 0)
        0.026             (-1.20857e-13 0 0)             (136.484 0 0)
        0.027             (5.4401e-13 0 0)             (143.388 -2.84705e-311 2.84705e-311)
        0.028             (4.35935e-13 0 0)             (150.524 -1.60422e-296 1.60422e-296)
        0.029             (-7.48437e-14 0 0)             (157.801 -4.59304e-282 4.59304e-282)
         0.03             (-5.93395e-13 0 0)             (165.092 -3.61474e-265 3.61474e-265)
        0.031             (-1.11343e-12 0 0)             (172.248 -6.65367e-249 6.65367e-249)
        0.032             (-1.16547e-12 0 0)             (179.112 -2.04166e-234 2.04166e-234)
        0.033             (-9.36103e-13 0 0)             (185.537 -1.51971e-221 1.51971e-221)
        0.034             (-9.1333e-13 0 0)             (191.398 -5.33815e-210 5.33815e-210)
        0.035             (-8.13002e-13 0 0)             (196.612 -1.48891e-199 1.48891e-199)
        0.036             (-6.29355e-13 0 0)             (201.177 -4.41176e-190 4.41176e-190)
        0.037             (-8.33735e-13 0 0)             (205.132 -1.87768e-181 1.87768e-181)
        0.038             (-6.86995e-13 0 0)             (208.352 -1.47168e-173 1.47168e-173)
        0.039             (-1.64962e-13 0 0)             (211.136 -2.88926e-166 2.88926e-166)
         0.04             (-5.58539e-13 0 0)             (213.516 -1.67816e-159 1.67816e-159)
        0.041             (-3.65736e-13 0 0)             (215.488 -3.39873e-153 3.39873e-153)
        0.042             (-2.08789e-13 0 0)             (217.124 -2.61723e-147 2.61723e-147)
        0.043             (-6.48059e-13 0 0)             (218.488 -8.6624e-142 8.6624e-142)
        0.044             (-9.20789e-13 0 0)             (219.628 -1.32551e-136 1.32551e-136)
        0.045             (-2.93557e-13 0 0)             (220.586 -1.02442e-131 1.02442e-131)
        0.046             (-8.10003e-14 0 0)             (221.398 -4.21249e-127 4.21249e-127)
        0.047             (-3.41302e-13 0 0)             (222.091 -9.8521e-123 9.8521e-123)
        0.048             (-5.71289e-13 0 0)             (222.685 -1.36636e-118 1.36636e-118)
        0.049             (-3.78834e-13 0 0)             (223.2 -1.18295e-114 1.18295e-114)
         0.05             (-7.88951e-13 0 0)             (223.648 -6.61901e-111 6.61901e-111)
        0.051             (-5.87539e-13 0 0)             (224.042 -2.48021e-107 2.48021e-107)
        0.052             (-8.44688e-13 0 0)             (224.39 -6.4054e-104 6.4054e-104)
        0.053             (-1.1775e-12 0 0)             (224.7 -1.16899e-100 1.16899e-100)
        0.054             (-1.10598e-12 0 0)             (224.977 -1.54404e-97 1.54404e-97)
        0.055             (-1.17174e-12 0 0)             (225.227 -1.50493e-94 1.50493e-94)
        0.056             (-1.56409e-12 0 0)             (225.454 -1.10431e-91 1.10431e-91)
        0.057             (-1.23474e-12 0 0)             (225.661 -6.20068e-89 6.20068e-89)
        0.058             (-5.77204e-13 0 0)             (225.85 -2.7087e-86 2.7087e-86)
        0.059             (-4.56552e-13 0 0)             (226.024 -9.33637e-84 9.33637e-84)
         0.06             (-3.39176e-13 0 0)             (226.184 -2.5734e-81 2.5734e-81)
        0.061             (-8.83985e-14 0 0)             (226.333 -5.74186e-79 5.74186e-79)
        0.062             (3.73555e-13 0 0)             (226.472 -1.04853e-76 1.04853e-76)
        0.063             (-4.53988e-13 0 0)             (226.601 -1.58341e-74 1.58341e-74)
        0.064             (-2.61351e-13 0 0)             (226.722 -1.99591e-72 1.99591e-72)
        0.065             (-4.63078e-13 0 0)             (226.836 -2.11844e-70 2.11844e-70)
        0.066             (-3.31455e-13 0 0)             (226.943 -1.9087e-68 1.9087e-68)
        0.067             (-8.5071e-14 0 0)             (227.043 -1.47081e-66 1.47081e-66)
        0.068             (-5.71063e-13 0 0)             (227.139 -9.76183e-65 9.76183e-65)
        0.069             (-2.31793e-13 0 0)             (227.229 -5.61698e-63 5.61698e-63)
         0.07             (-2.72174e-13 0 0)             (227.315 -2.81924e-61 2.81924e-61)
        0.071             (-4.34307e-13 0 0)             (227.397 -1.24141e-59 1.24141e-59)
        0.072             (-8.11693e-13 0 0)             (227.475 -4.82141e-58 4.82141e-58)
        0.073             (-4.43622e-13 0 0)             (227.549 -1.65996e-56 1.65996e-56)
        0.074             (-3.96322e-13 0 0)             (227.62 -5.09004e-55 5.09004e-55)
        0.075             (-4.51512e-13 0 0)             (227.687 -1.39622e-53 1.39622e-53)
        0.076             (-3.31991e-13 0 0)             (227.752 -3.44018e-52 3.44018e-52)
        0.077             (-8.25474e-14 0 0)             (227.815 -7.64308e-51 7.64308e-51)
        0.078             (4.84117e-13 0 0)             (227.875 -1.53664e-49 1.53664e-49)
        0.079             (1.03859e-12 0 0)             (227.932 -2.80507e-48 2.80507e-48)
         0.08             (1.01274e-12 0 0)             (227.987 -4.66381e-47 4.66381e-47)
        0.081             (1.74151e-14 0 0)             (228.041 -7.08316e-46 7.08316e-46)
        0.082             (-6.94232e-13 0 0)             (228.092 -9.85328e-45 9.85328e-45)
        0.083             (-5.11939e-13 0 0)             (228.142 -1.25863e-43 1.25863e-43)
        0.084             (-5.13974e-13 0 0)             (228.19 -1.47981e-42 1.47981e-42)
        0.085             (-3.19373e-13 0 0)             (228.236 -1.6049e-41 1.6049e-41)
        0.086             (1.49901e-13 0 0)             (228.281 -1.60883e-40 1.60883e-40)
        0.087             (5.28495e-13 0 0)             (228.324 -1.49353e-39 1.49353e-39)
        0.088             (6.80381e-13 0 0)             (228.366 -1.28622e-38 1.28622e-38)
        0.089             (8.4679e-13 0 0)             (228.407 -1.02923e-37 1.02923e-37)
         0.09             (2.97648e-13 0 0)             (228.446 -7.664e-37 7.664e-37)
        0.091             (6.09151e-13 0 0)             (228.485 -5.31784e-36 5.31784e-36)
        0.092             (5.96479e-13 0 0)             (228.522 -3.44265e-35 3.44265e-35)
        0.093             (8.87447e-13 0 0)             (228.558 -2.0817e-34 2.0817e-34)
        0.094             (6.09484e-13 0 0)             (228.593 -1.17695e-33 1.17695e-33)
        0.095             (3.3656e-13 0 0)             (228.627 -6.22732e-33 6.22732e-33)
        0.096             (1.63771e-13 0 0)             (228.661 -3.08601e-32 3.08601e-32)
        0.097             (4.37258e-13 0 0)             (228.693 -1.43333e-31 1.43333e-31)
        0.098             (7.95471e-13 0 0)             (228.725 -6.24307e-31 6.24307e-31)
        0.099             (6.95409e-13 0 0)             (228.755 -2.55127e-30 2.55127e-30)
          0.1             (3.39779e-13 0 0)             (228.785 -9.78579e-30 9.78579e-30)
        0.101             (5.68587e-13 0 0)             (228.813 -3.52426e-29 3.52426e-29)
        0.102             (5.19487e-13 0 0)             (228.841 -1.1918e-28 1.1918e-28)
        0.103             (7.64515e-13 0 0)             (228.868 -3.78358e-28 3.78358e-28)
        0.104             (8.34726e-13 0 0)             (228.895 -1.12728e-27 1.12728e-27)
        0.105             (9.34834e-13 0 0)             (228.922 -3.15068e-27 3.15068e-27)
        0.106             (8.50915e-13 0 0)             (228.948 -8.25529e-27 8.25529e-27)
        0.107             (4.60947e-13 0 0)             (228.973 -2.0261e-26 2.0261e-26)
        0.108             (5.53178e-13 0 0)             (228.997 -4.65311e-26 4.65311e-26)
        0.109             (3.08061e-13 0 0)             (229.022 -9.9856e-26 9.9856e-26)
         0.11             (-1.3598e-13 0 0)             (229.045 -1.99882e-25 1.99882e-25)
        0.111             (-4.6155e-13 0 0)             (229.068 -3.72345e-25 3.72345e-25)
        0.112             (2.24097e-13 0 0)             (229.09 -6.4358e-25 6.4358e-25)
        0.113             (2.55416e-13 0 0)             (229.112 -1.02824e-24 1.02824e-24)
        0.114             (-1.97173e-13 0 0)             (229.133 -1.51099e-24 1.51099e-24)
        0.115             (1.18804e-13 0 0)             (229.154 -2.0285e-24 2.0285e-24)
        0.116             (6.57544e-13 0 0)             (229.175 -2.46469e-24 2.46469e-24)
        0.117             (1.08705e-12 0 0)             (229.195 -2.67317e-24 2.67317e-24)
        0.118             (1.36697e-12 0 0)             (229.215 -2.53176e-24 2.53176e-24)
        0.119             (7.45218e-13 0 0)             (229.234 -2.01263e-24 2.01263e-24)
         0.12             (4.39523e-13 0 0)             (229.253 -1.22873e-24 1.22873e-24)
        0.121             (6.421e-13 0 0)             (229.272 -4.14359e-25 4.14359e-25)
        0.122             (1.19676e-12 0 0)             (229.29 1.72479e-25 -1.72479e-25)
        0.123             (1.28574e-12 0 0)             (229.308 3.82323e-25 -3.82323e-25)
        0.124             (1.42278e-12 0 0)             (229.326 2.56703e-25 -2.56703e-25)
        0.125             (9.38214e-13 0 0)             (229.343 -5.6808e-27 5.6808e-27)
        0.126             (5.92451e-13 0 0)             (229.36 -1.85652e-25 1.85652e-25)
        0.127             (9.76106e-13 0 0)             (229.377 -1.85263e-25 1.85263e-25)
        0.128             (9.86514e-13 0 0)             (229.394 -6.65764e-26 6.65764e-26)
        0.129             (8.02614e-13 0 0)             (229.411 3.4733e-26 -3.4733e-26)
         0.13             (6.62667e-13 0 0)             (229.427 3.49379e-26 -3.49379e-26)
        0.131             (7.15395e-13 0 0)             (229.443 -4.48729e-26 4.48729e-26)
        0.132             (3.42737e-13 0 0)             (229.458 -1.28524e-25 1.28524e-25)
        0.133             (3.48524e-13 0 0)             (229.474 -1.65809e-25 1.65809e-25)
        0.134             (4.86549e-13 0 0)             (229.489 -1.60491e-25 1.60491e-25)
        0.135             (8.75061e-13 0 0)             (229.504 -1.37846e-25 1.37846e-25)
        0.136             (8.00073e-13 0 0)             (229.519 -1.10056e-25 1.10056e-25)
        0.137             (5.60441e-13 0 0)             (229.533 -7.8483e-26 7.8483e-26)
        0.138             (1.95237e-13 0 0)             (229.548 -5.07281e-26 5.07281e-26)
        0.139             (5.91871e-13 0 0)             (229.562 -3.72782e-26 3.72782e-26)
         0.14             (9.92934e-13 0 0)             (229.576 -3.56767e-26 3.56767e-26)
        0.141             (4.13745e-13 0 0)             (229.59 -3.43753e-26 3.43753e-26)
        0.142             (8.62145e-13 0 0)             (229.603 -3.53224e-26 3.53224e-26)
        0.143             (1.15915e-12 0 0)             (229.617 -5.94556e-26 5.94556e-26)
        0.144             (1.10883e-12 0 0)             (229.63 -1.20566e-25 1.20566e-25)
        0.145             (1.59079e-12 0 0)             (229.643 -1.99243e-25 1.99243e-25)
        0.146             (1.69441e-12 0 0)             (229.656 -2.50692e-25 2.50692e-25)
        0.147             (1.6097e-12 0 0)             (229.669 -2.38053e-25 2.38053e-25)
        0.148             (1.03101e-12 0 0)             (229.682 -1.58156e-25 1.58156e-25)
        0.149             (1.1559e-12 0 0)             (229.694 -4.40521e-26 4.40521e-26)
         0.15             (1.33324e-12 0 0)             (229.707 4.94718e-26 -4.94718e-26)
        0.151             (1.24609e-12 0 0)             (229.719 7.13449e-26 -7.13449e-26)
        0.152             (9.08568e-13 0 0)             (229.731 5.13183e-27 -5.13183e-27)
        0.153             (6.47386e-13 0 0)             (229.742 -1.13992e-25 1.13992e-25)
        0.154             (4.08973e-13 0 0)             (229.754 -2.17471e-25 2.17471e-25)
        0.155             (9.11801e-13 0 0)             (229.765 -2.49132e-25 2.49132e-25)
        0.156             (4.6692e-13 0 0)             (229.776 -2.0122e-25 2.0122e-25)
        0.157             (2.95561e-13 0 0)             (229.788 -1.11387e-25 1.11387e-25)
        0.158             (4.53105e-13 0 0)             (229.799 -2.85444e-26 2.85444e-26)
        0.159             (7.76515e-13 0 0)             (229.81 1.87865e-26 -1.87865e-26)
         0.16             (1.01421e-12 0 0)             (229.82 2.71713e-26 -2.71713e-26)
        0.161             (6.58532e-13 0 0)             (229.831 2.7368e-27 -2.7368e-27)
        0.162             (4.31261e-13 0 0)             (229.842 -4.81863e-26 4.81863e-26)
        0.163             (3.42274e-13 0 0)             (229.852 -1.10559e-25 1.10559e-25)
        0.164             (5.33023e-13 0 0)             (229.862 -1.54343e-25 1.54343e-25)
        0.165             (7.49258e-13 0 0)             (229.872 -1.52792e-25 1.52792e-25)
        0.166             (4.68649e-13 0 0)             (229.883 -1.09624e-25 1.09624e-25)
        0.167             (3.22679e-13 0 0)             (229.893 -5.6229e-26 5.6229e-26)
        0.168             (5.03783e-13 0 0)             (229.902 -1.59305e-26 1.59305e-26)
        0.169             (5.74242e-13 0 0)             (229.912 1.96368e-26 -1.96368e-26)
         0.17             (9.97036e-13 0 0)             (229.922 7.12644e-26 -7.12644e-26)
        0.171             (6.66337e-13 0 0)             (229.932 1.37686e-25 -1.37686e-25)
        0.172             (1.00954e-12 0 0)             (229.941 1.8985e-25 -1.8985e-25)
        0.173             (1.13227e-12 0 0)             (229.951 1.94343e-25 -1.94343e-25)
        0.174             (9.80726e-13 0 0)             (229.96 1.34543e-25 -1.34543e-25)
        0.175             (6.6481e-13 0 0)             (229.969 1.64413e-26 -1.64413e-26)
        0.176             (6.76635e-13 0 0)             (229.979 -1.30604e-25 1.30604e-25)
        0.177             (3.93434e-13 0 0)             (229.988 -2.56396e-25 2.56396e-25)
        0.178             (4.29941e-13 0 0)             (229.997 -3.06374e-25 3.06374e-25)
        0.179             (9.13607e-13 0 0)             (230.006 -2.50423e-25 2.50423e-25)
         0.18             (8.6072e-13 0 0)             (230.015 -1.04695e-25 1.04695e-25)
        0.181             (-2.05193e-13 0 0)             (230.024 7.14214e-26 -7.14214e-26)
        0.182             (1.60787e-13 0 0)             (230.032 2.05247e-25 -2.05247e-25)
        0.183             (7.87515e-13 0 0)             (230.041 2.51505e-25 -2.51505e-25)
        0.184             (3.32348e-13 0 0)             (230.05 2.15435e-25 -2.15435e-25)
        0.185             (1.92355e-13 0 0)             (230.058 1.39268e-25 -1.39268e-25)
        0.186             (-5.49139e-14 0 0)             (230.067 6.44577e-26 -6.44577e-26)
        0.187             (-1.70803e-14 0 0)             (230.075 3.39651e-27 -3.39651e-27)
        0.188             (-6.28466e-14 0 0)             (230.084 -5.86576e-26 5.86576e-26)
        0.189             (2.41635e-13 0 0)             (230.092 -1.38436e-25 1.38436e-25)
         0.19             (8.60178e-13 0 0)             (230.1 -2.28241e-25 2.28241e-25)
        0.191             (7.57617e-13 0 0)             (230.108 -2.91181e-25 2.91181e-25)
        0.192             (6.65698e-13 0 0)             (230.116 -2.88413e-25 2.88413e-25)
        0.193             (8.00882e-13 0 0)             (230.124 -2.17734e-25 2.17734e-25)
        0.194             (1.02365e-12 0 0)             (230.132 -1.21445e-25 1.21445e-25)
        0.195             (9.92642e-13 0 0)             (230.14 -5.047e-26 5.047e-26)
        0.196             (1.18819e-12 0 0)             (230.148 -2.51226e-26 2.51226e-26)
        0.197             (1.28762e-12 0 0)             (230.155 -3.51126e-26 3.51126e-26)
        0.198             (4.57157e-13 0 0)             (230.163 -6.63269e-26 6.63269e-26)
        0.199             (7.12912e-13 0 0)             (230.17 -1.11599e-25 1.11599e-25)
          0.2             (6.62695e-13 0 0)             (230.178 -1.57629e-25 1.57629e-25)
        0.201             (6.21751e-13 0 0)             (230.185 -1.78886e-25 1.78886e-25)
        0.202             (-1.01101e-13 0 0)             (230.193 -1.54609e-25 1.54609e-25)
        0.203             (1.57695e-13 0 0)             (230.2 -8.89479e-26 8.89479e-26)
        0.204             (-1.63167e-13 0 0)             (230.207 -1.1601e-26 1.1601e-26)
        0.205             (-1.69894e-13 0 0)             (230.214 3.99162e-26 -3.99162e-26)
        0.206             (-2.8819e-13 0 0)             (230.221 4.19983e-26 -4.19983e-26)
        0.207             (4.00169e-13 0 0)             (230.228 -1.13573e-27 1.13573e-27)
        0.208             (1.7522e-13 0 0)             (230.235 -5.94353e-26 5.94353e-26)
        0.209             (2.12658e-13 0 0)             (230.242 -9.65064e-26 9.65064e-26)
         0.21             (1.21126e-13 0 0)             (230.249 -9.41587e-26 9.41587e-26)
        0.211             (6.41098e-13 0 0)             (230.256 -6.25077e-26 6.25077e-26)
        0.212             (4.09266e-13 0 0)             (230.263 -2.85646e-26 2.85646e-26)
        0.213             (-1.54071e-13 0 0)             (230.269 -1.47046e-26 1.47046e-26)
        0.214             (-4.53971e-13 0 0)             (230.276 -2.32212e-26 2.32212e-26)
        0.215             (-4.49793e-13 0 0)             (230.283 -3.60533e-26 3.60533e-26)
        0.216             (-3.47166e-13 0 0)             (230.289 -3.08323e-26 3.08323e-26)
        0.217             (1.99114e-14 0 0)             (230.296 -4.20553e-27 4.20553e-27)
        0.218             (2.13807e-13 0 0)             (230.302 1.93139e-26 -1.93139e-26)
        0.219             (2.05852e-13 0 0)             (230.308 9.87617e-27 -9.87617e-27)
         0.22             (3.91541e-13 0 0)             (230.315 -3.09009e-26 3.09009e-26)
        0.221             (7.38515e-13 0 0)             (230.321 -6.30929e-26 6.30929e-26)
        0.222             (9.67618e-13 0 0)             (230.327 -4.85603e-26 4.85603e-26)
        0.223             (9.54915e-13 0 0)             (230.334 4.99721e-27 -4.99721e-27)
        0.224             (5.0406e-13 0 0)             (230.34 5.05464e-26 -5.05464e-26)
        0.225             (3.22446e-13 0 0)             (230.346 5.16337e-26 -5.16337e-26)
        0.226             (1.02467e-12 0 0)             (230.352 1.43102e-26 -1.43102e-26)
        0.227             (1.09538e-12 0 0)             (230.358 -3.21144e-26 3.21144e-26)
        0.228             (7.77962e-13 0 0)             (230.364 -7.01755e-26 7.01755e-26)
        0.229             (8.49387e-13 0 0)             (230.37 -9.81226e-26 9.81226e-26)
         0.23             (6.90897e-13 0 0)             (230.376 -1.0944e-25 1.0944e-25)
        0.231             (8.40391e-13 0 0)             (230.382 -8.9583e-26 8.9583e-26)
        0.232             (4.99372e-13 0 0)             (230.387 -3.91269e-26 3.91269e-26)
        0.233             (4.21287e-13 0 0)             (230.393 1.2321e-26 -1.2321e-26)
        0.234             (7.196e-13 0 0)             (230.399 2.71693e-26 -2.71693e-26)
        0.235             (4.41366e-13 0 0)             (230.405 -5.9001e-27 5.9001e-27)
        0.236             (1.62064e-13 0 0)             (230.41 -6.35602e-26 6.35602e-26)
        0.237             (-3.53296e-13 0 0)             (230.416 -1.12035e-25 1.12035e-25)
        0.238             (3.23842e-13 0 0)             (230.422 -1.34478e-25 1.34478e-25)
        0.239             (3.67058e-13 0 0)             (230.427 -1.34797e-25 1.34797e-25)
         0.24             (1.7142e-13 0 0)             (230.433 -1.219e-25 1.219e-25)
        0.241             (3.15961e-14 0 0)             (230.438 -9.75538e-26 9.75538e-26)
        0.242             (4.04397e-14 0 0)             (230.444 -6.05081e-26 6.05081e-26)
        0.243             (-4.04412e-14 0 0)             (230.449 -1.73833e-26 1.73833e-26)
        0.244             (3.41114e-13 0 0)             (230.454 1.59463e-26 -1.59463e-26)
        0.245             (2.9933e-13 0 0)             (230.46 2.55688e-26 -2.55688e-26)
        0.246             (4.82719e-13 0 0)             (230.465 1.12237e-26 -1.12237e-26)
        0.247             (1.06171e-13 0 0)             (230.47 -1.42032e-26 1.42032e-26)
        0.248             (-6.19429e-13 0 0)             (230.475 -3.65277e-26 3.65277e-26)
        0.249             (-4.28212e-13 0 0)             (230.481 -5.02249e-26 5.02249e-26)
         0.25             (-2.27957e-13 0 0)             (230.486 -5.6551e-26 5.6551e-26)
        0.251             (-3.12522e-13 0 0)             (230.491 -5.52196e-26 5.52196e-26)
        0.252             (-2.44492e-13 0 0)             (230.496 -4.23355e-26 4.23355e-26)
        0.253             (-1.23037e-13 0 0)             (230.501 -1.70686e-26 1.70686e-26)
        0.254             (-5.31095e-14 0 0)             (230.506 1.25354e-26 -1.25354e-26)
        0.255             (-2.67814e-13 0 0)             (230.511 3.18436e-26 -3.18436e-26)
        0.256             (-7.44648e-13 0 0)             (230.516 2.76603e-26 -2.76603e-26)
        0.257             (-1.67429e-13 0 0)             (230.521 -2.80395e-27 2.80395e-27)
        0.258             (5.24557e-13 0 0)             (230.526 -4.54797e-26 4.54797e-26)
        0.259             (3.76351e-13 0 0)             (230.531 -7.28241e-26 7.28241e-26)
         0.26             (2.78352e-13 0 0)             (230.536 -6.33973e-26 6.33973e-26)
        0.261             (3.01614e-14 0 0)             (230.54 -2.54537e-26 2.54537e-26)
        0.262             (3.27972e-13 0 0)             (230.545 4.10945e-27 -4.10945e-27)
        0.263             (6.37973e-13 0 0)             (230.55 -5.48026e-27 5.48026e-27)
        0.264             (2.01725e-12 0 0)             (230.555 -4.46985e-26 4.46985e-26)
        0.265             (5.44485e-12 0 0)             (230.559 -7.25244e-26 7.25244e-26)
        0.266             (1.58186e-11 0 0)             (230.564 -6.13997e-26 6.13997e-26)
        0.267             (4.21359e-11 0 0)             (230.569 -2.54147e-26 2.54147e-26)
        0.268             (1.08048e-10 0 0)             (230.573 1.1226e-28 -1.1226e-28)
        0.269             (2.6914e-10 0 0)             (230.578 -1.96942e-27 1.96942e-27)
         0.27             (6.45907e-10 0 0)             (230.582 -2.05405e-26 2.05405e-26)
        0.271             (1.50413e-09 0 0)             (230.587 -3.86336e-26 3.86336e-26)
        0.272             (3.41656e-09 0 0)             (230.591 -5.1285e-26 5.1285e-26)
        0.273             (7.5656e-09 0 0)             (230.596 -5.96157e-26 5.96157e-26)
        0.274             (1.63318e-08 0 0)             (230.6 -6.10503e-26 6.10503e-26)
        0.275             (3.43674e-08 0 0)             (230.604 -5.42201e-26 5.42201e-26)
        0.276             (7.04847e-08 0 0)             (230.609 -4.59829e-26 4.59829e-26)
        0.277             (1.40885e-07 0 0)             (230.613 -4.39039e-26 4.39039e-26)
        0.278             (2.74445e-07 0 0)             (230.617 -4.50275e-26 4.50275e-26)
        0.279             (5.21026e-07 0 0)             (230.622 -4.02441e-26 4.02441e-26)
         0.28             (9.64035e-07 0 0)             (230.626 -2.80618e-26 2.80618e-26)
        0.281             (1.73852e-06 0 0)             (230.63 -1.64642e-26 1.64642e-26)
        0.282             (3.05599e-06 0 0)             (230.635 -1.12805e-26 1.12805e-26)
        0.283             (5.23678e-06 0 0)             (230.639 -9.54813e-27 9.54813e-27)
        0.284             (8.74957e-06 0 0)             (230.643 -6.02344e-27 6.02344e-27)
        0.285             (1.42564e-05 0 0)             (230.647 -1.29052e-27 1.29052e-27)
        0.286             (2.26598e-05 0 0)             (230.651 -9.06424e-28 9.06424e-28)
        0.287             (3.51455e-05 0 0)             (230.656 -8.95429e-27 8.95429e-27)
        0.288             (5.32148e-05 0 0)             (230.66 -2.37977e-26 2.37977e-26)
        0.289             (7.86981e-05 0 0)             (230.664 -3.85211e-26 3.85211e-26)
         0.29             (0.000113742 0 0)             (230.668 -4.51273e-26 4.51273e-26)
        0.291             (0.000160771 0 0)             (230.672 -4.04303e-26 4.04303e-26)
        0.292             (0.000222415 0 0)             (230.676 -2.89907e-26 2.89907e-26)
        0.293             (0.000301424 0 0)             (230.68 -1.92175e-26 1.92175e-26)
        0.294             (0.000400565 0 0)             (230.684 -1.59585e-26 1.59585e-26)
        0.295             (0.000522532 0 0)             (230.688 -1.75566e-26 1.75566e-26)
        0.296             (0.000669871 0 0)             (230.692 -1.97609e-26 1.97609e-26)
        0.297             (0.000844938 0 0)             (230.696 -2.05862e-26 2.05862e-26)
        0.298             (0.00104989 0 0)             (230.7 -2.07399e-26 2.07399e-26)
        0.299             (0.00128674 0 0)             (230.704 -2.13164e-26 2.13164e-26)
          0.3             (0.00155738 0 0)             (230.708 -2.29783e-26 2.29783e-26)
        0.301             (0.00186369 0 0)             (230.711 -2.66734e-26 2.66734e-26)
        0.302             (0.00220763 0 0)             (230.715 -3.30842e-26 3.30842e-26)
        0.303             (0.00259132 0 0)             (230.719 -4.04831e-26 4.04831e-26)
        0.304             (0.00301708 0 0)             (230.723 -4.38519e-26 4.38519e-26)
        0.305             (0.00348752 0 0)             (230.727 -3.75559e-26 3.75559e-26)
        0.306             (0.00400559 0 0)             (230.73 -2.04292e-26 2.04292e-26)
        0.307             (0.00457452 0 0)             (230.734 9.82144e-28 -9.82144e-28)
        0.308             (0.00519793 0 0)             (230.738 1.52146e-26 -1.52146e-26)
        0.309             (0.00587977 0 0)             (230.742 1.41591e-26 -1.41591e-26)
         0.31             (0.00662435 0 0)             (230.745 -1.28904e-28 1.28904e-28)
        0.311             (0.00743634 0 0)             (230.749 -1.74903e-26 1.74903e-26)
        0.312             (0.0083208 0 0)             (230.753 -2.93374e-26 2.93374e-26)
        0.313             (0.00928318 0 0)             (230.756 -3.56617e-26 3.56617e-26)
        0.314             (0.0103293 0 0)             (230.76 -4.18258e-26 4.18258e-26)
        0.315             (0.0114656 0 0)             (230.763 -5.00266e-26 5.00266e-26)
        0.316             (0.0126987 0 0)             (230.767 -5.6443e-26 5.6443e-26)
        0.317             (0.0140361 0 0)             (230.771 -5.69041e-26 5.69041e-26)
        0.318             (0.0154855 0 0)             (230.774 -5.30482e-26 5.30482e-26)
        0.319             (0.0170555 0 0)             (230.778 -5.11694e-26 5.11694e-26)
         0.32             (0.0187552 0 0)             (230.781 -5.51317e-26 5.51317e-26)
        0.321             (0.0205944 0 0)             (230.785 -6.12654e-26 6.12654e-26)
        0.322             (0.0225837 0 0)             (230.788 -6.10058e-26 6.10058e-26)
        0.323             (0.0247346 0 0)             (230.792 -4.90288e-26 4.90288e-26)
        0.324             (0.0270594 0 0)             (230.795 -2.86582e-26 2.86582e-26)
        0.325             (0.0295713 0 0)             (230.798 -9.27087e-27 9.27087e-27)
        0.326             (0.0322846 0 0)             (230.802 6.9068e-28 -6.9068e-28)
        0.327             (0.0352148 0 0)             (230.805 -1.85937e-27 1.85937e-27)
        0.328             (0.0383785 0 0)             (230.809 -1.40359e-26 1.40359e-26)
        0.329             (0.0417937 0 0)             (230.812 -2.71267e-26 2.71267e-26)
         0.33             (0.0454795 0 0)             (230.815 -2.8492e-26 2.8492e-26)
        0.331             (0.0494569 0 0)             (230.819 -9.29799e-27 9.29799e-27)
        0.332             (0.0537483 0 0)             (230.822 2.52623e-26 -2.52623e-26)
        0.333             (0.0583779 0 0)             (230.825 5.49502e-26 -5.49502e-26)
        0.334             (0.0633717 0 0)             (230.828 5.75501e-26 -5.75501e-26)