# Probe 0 (-45 0 0)
# Probe 1 (6 0 0)
#       Probe             0             1
#        Time
            0             (0 0 0)             (0 0 0)
         0.01             (7.43723e-13 0 0)             (31.1911 0 0)
         0.02             (-1.07777e-12 0 0)             (75.5393 0 0)
         0.03             (-6.30276e-14 0 0)             (145.751 0 0)
         0.04             (6.4288e-13 0 0)             (151.18 0 0)
         0.05             (-5.92458e-13 0 0)             (152.126 0 0)
         0.06             (1.10298e-12 0 0)             (152.541 0 0)
         0.07             (-4.47495e-13 0 0)             (152.819 0 0)
         0.08             (1.89082e-13 0 0)             (153.022 0 0)
         0.09             (3.16398e-12 0 0)             (153.177 0 0)
          0.1             (-4.03376e-12 0 0)             (153.306 0 0)
         0.11             (-6.68091e-13 0 0)             (153.411 0 0)
         0.12             (3.02532e-12 0 0)             (153.498 0 0)
         0.13             (-1.89713e-12 0 0)             (153.572 0 0)
         0.14             (9.51714e-13 0 0)             (153.636 0 0)
         0.15             (-9.32806e-13 0 0)             (153.691 0 0)
         0.16             (4.53167e-12 0 0)             (153.74 0 0)
         0.17             (-7.56329e-13 0 0)             (153.784 0 0)
         0.18             (5.32582e-12 0 0)             (153.824 0 0)
         0.19             (3.09465e-12 0 0)             (153.847 0 0)
          0.2             (7.43724e-13 0 0)             (153.868 0 0)
         0.21             (-2.15554e-12 0 0)             (153.891 0 0)
         0.22             (2.23747e-12 0 0)             (153.914 0 0)
         0.23             (1.19752e-13 0 0)             (153.938 0 0)
         0.24             (3.93291e-12 0 0)             (153.961 0 0)
         0.25             (2.52867e-08 0 0)             (153.984 0 0)
         0.26             (0.000122418 0 0)             (154.007 0 0)
         0.27             (0.0326785 0 0)             (154.029 0 0)
         0.28             (0.474488 0 0)             (154.05 0 0)
         0.29             (0.852166 0 0)             (154.071 0 0)
          0.3             (0.871799 0 0)             (154.091 0 0)
         0.31             (0.872473 0 0)             (154.111 0 0)
         0.32             (0.876169 0 0)             (154.13 0 0)
         0.33             (0.736283 0 0)             (154.148 0 0)
         0.34             (0.299089 0 0)             (154.167 0 0)
         0.35             (0.192397 0 0)             (154.184 0 0)
         0.36             (0.248563 0 0)             (154.202 0 0)
         0.37             (0.313286 0 0)             (154.219 0 0)
         0.38             (0.384078 0 0)             (154.235 0 0)
         0.39             (0.462231 0 0)             (154.251 0 0)
          0.4             (0.548511 0 0)             (154.267 0 0)
         0.41             (0.641401 0 0)             (154.282 0 0)
         0.42             (0.741427 0 0)             (154.297 0 0)
         0.43             (0.852185 0 0)             (154.312 0 0)
         0.44             (0.980598 0 0)             (154.326 0 0)
         0.45             (1.13681 0 0)             (154.34 0 0)
         0.46             (1.33231 0 0)             (154.349 0 0)
         0.47             (1.5841 0 0)             (154.369 0 0)
         0.48             (1.90713 0 0)             (154.378 0 0)
         0.49             (2.32322 0 0)             (154.41 0 0)
          0.5             (2.8393 0 0)             (154.423 0 0)
         0.51             (3.49268 0 0)             (154.432 0 0)
         0.52             (4.29287 0 0)             (154.441 0 0)
         0.53             (5.22369 0 0)             (154.45 0 0)
         0.54             (6.25449 0 0)             (154.459 0 0)
         0.55             (7.33893 0 0)             (154.467 0 0)
         0.56             (8.42607 0 0)             (154.475 0 0)
         0.57             (9.46373 0 0)             (154.483 0 0)
         0.58             (10.406 0 0)             (154.49 0 0)
         0.59             (11.2152 0 0)             (154.498 0 0)
          0.6             (11.8626 0 0)             (154.505 0 0)
         0.61             (12.3309 0 0)             (154.512 0 0)
         0.62             (12.6175 0 0)             (154.519 0 0)
         0.63             (12.7376 0 0)             (154.525 0 0)
         0.64             (12.7201 0 0)             (154.528 0 0)
         0.65             (12.6001 0 0)             (154.522 0 0)
         0.66             (12.4133 0 0)             (154.527 0 0)
         0.67             (12.1865 0 0)             (154.53 0 0)
         0.68             (11.9401 0 0)             (154.522 0 0)
         0.69             (11.688 0 0)             (154.516 0 0)
          0.7             (11.4387 0 0)             (154.515 0 0)
         0.71             (11.1978 0 0)             (154.516 0 0)
         0.72             (10.9769 0 0)             (154.52 0 0)
         0.73             (10.7236 0 0)             (154.523 0 0)
         0.74             (10.5191 0 0)             (154.524 0 0)
         0.75             (10.3225 0 0)             (154.526 0 0)
         0.76             (10.1889 0 0)             (154.526 0 0)
         0.77             (9.99329 0 0)             (154.526 0 0)
         0.78             (9.78302 0 0)             (154.524 0 0)
         0.79             (9.63704 0 0)             (154.52 0 0)
          0.8             (9.50226 0 0)             (154.513 0 0)
         0.81             (9.33498 0 0)             (154.505 0 0)
         0.82             (9.14092 0 0)             (154.493 0 0)
         0.83             (9.05397 0 0)             (154.478 0 0)
         0.84             (8.9009 0 0)             (154.459 0 0)
         0.85             (8.77637 0 0)             (154.434 0 0)
         0.86             (8.65038 0 0)             (154.402 0 0)
         0.87             (8.52499 0 0)             (154.36 0 0)
         0.88             (8.4021 0 0)             (154.306 0 0)
         0.89             (8.29468 0 0)             (154.236 0 0)
          0.9             (8.19226 0 0)             (154.146 0 0)
         0.91             (8.08979 0 0)             (154.031 0 0)
         0.92             (7.9855 0 0)             (153.888 0 0)
         0.93             (7.8838 0 0)             (153.715 0 0)
         0.94             (7.79103 0 0)             (153.512 0 0)
         0.95             (7.69741 0 0)             (153.281 0 0)
         0.96             (7.60974 0 0)             (153.024 0 0)
         0.97             (7.52182 0 0)             (152.746 0 0)
         0.98             (7.43559 0 0)             (152.46 0 0)
         0.99             (7.35218 0 0)             (152.132 0 0)
            1             (7.27223 0 0)             (151.809 0 0)
