# Probe 0 (-45 0 0)
# Probe 1 (6 0 0)
#       Probe             0             1
#        Time
            0             (0 0 0)             (0 0 0)
        0.001             (-2.82042e-13 -7.54363e-16 -7.54363e-16)             (37.4252 -5.41317 3.23643)
        0.002             (-6.9687e-13 -7.44998e-16 -7.44998e-16)             (40.3114 -3.72866 6.20186)
        0.003             (-4.19297e-13 -3.59085e-16 -3.59085e-16)             (42.9723 -3.80805 6.67606)
        0.004             (-5.2061e-13 -9.96927e-16 -9.96927e-16)             (45.4689 -4.36923 6.14506)
        0.005             (-2.35292e-13 7.93382e-16 7.93382e-16)             (48.0273 -4.82249 5.48984)
        0.006             (-2.74479e-13 1.71897e-16 1.71897e-16)             (50.6109 -4.89671 5.35391)
        0.007             (-3.40577e-13 -4.2673e-16 -4.2673e-16)             (53.1369 -4.826 5.29385)
        0.008             (-1.63089e-13 -1.55322e-16 -1.55322e-16)             (55.5824 -4.79578 5.13599)
        0.009             (1.48456e-13 -7.95006e-16 -7.95006e-16)             (58.0143 -4.81528 4.94292)
         0.01             (-1.28996e-13 -9.53831e-16 -9.53831e-16)             (60.5644 -4.83579 4.82332)
        0.011             (-2.98239e-15 -9.44327e-16 -9.44327e-16)             (63.2307 -4.8315 4.79165)
        0.012             (-9.51478e-14 -2.26729e-15 -2.26729e-15)             (66.0028 -4.83958 4.79801)
        0.013             (5.89763e-13 -1.03889e-15 -1.03889e-15)             (68.9105 -4.87797 4.82671)
        0.014             (1.14308e-13 -1.19322e-15 -1.19322e-15)             (71.9547 -4.92657 4.86916)
        0.015             (5.38882e-13 -8.02788e-16 -8.02788e-16)             (75.1504 -4.96292 4.91656)
        0.016             (7.24617e-13 -1.19614e-15 -1.19614e-15)             (78.5006 -4.97633 4.9266)
        0.017             (7.14666e-13 -1.77888e-16 -1.77888e-16)             (81.9813 -4.90554 4.79511)
        0.018             (3.12227e-13 -2.16237e-15 -2.16237e-15)             (85.6018 -4.6278 4.33388)
        0.019             (2.52457e-13 -2.10666e-15 -2.10666e-15)             (89.3241 -4.03488 3.33363)
         0.02             (-2.72932e-13 -6.08632e-17 -6.08632e-17)             (93.1501 -3.1589 1.79866)
        0.021             (-1.97899e-13 -1.15385e-15 -1.15385e-15)             (97.1237 -2.26956 0.10372)
        0.022             (5.61671e-13 -1.25627e-15 -1.25627e-15)             (101.257 -1.76191 -1.19675)
        0.023             (7.58185e-14 -8.32338e-16 -8.32338e-16)             (105.514 -1.77644 -1.88232)
        0.024             (-1.18288e-13 1.84767e-16 1.84767e-16)             (109.843 -2.066 -2.2589)
        0.025             (-4.28892e-13 -1.31445e-15 -1.31445e-15)             (114.215 -2.32067 -2.7163)
        0.026             (-4.72463e-13 -1.68348e-15 -1.68348e-15)             (118.601 -2.52771 -3.28536)
        0.027             (-7.17136e-13 -1.68948e-15 -1.68948e-15)             (122.958 -2.84446 -3.78895)
        0.028             (-1.12094e-12 -2.03015e-15 -2.03015e-15)             (127.245 -3.28264 -4.22596)
        0.029             (-6.82253e-13 -1.79709e-15 -1.79709e-15)             (131.342 -3.73995 -4.68392)
         0.03             (-5.448e-13 -1.97834e-15 -1.97834e-15)             (135.183 -4.17345 -5.12867)
        0.031             (-1.90596e-13 -4.77569e-15 -4.77569e-15)             (138.875 -4.64707 -5.55036)
        0.032             (3.78573e-13 -5.50295e-15 -5.50295e-15)             (142.352 -5.13882 -5.96554)
        0.033             (3.73661e-13 -3.8581e-15 -3.8581e-15)             (145.556 -5.60178 -6.34794)
        0.034             (1.68338e-13 -5.57365e-15 -5.57365e-15)             (148.511 -6.01638 -6.63386)
        0.035             (-1.87981e-13 -5.17104e-15 -5.17104e-15)             (151.236 -6.35377 -6.73954)
        0.036             (-2.50261e-13 -4.70951e-15 -4.70951e-15)             (153.642 -6.5185 -6.50322)
        0.037             (-2.65805e-13 -5.30684e-15 -5.30684e-15)             (155.552 -6.3794 -5.70189)
        0.038             (-1.12253e-13 -4.14568e-15 -4.14568e-15)             (156.805 -5.75162 -4.09844)
        0.039             (-3.90426e-13 -3.79673e-15 -3.79673e-15)             (157.696 -4.87123 -2.09734)
         0.04             (2.81126e-13 -4.78581e-15 -4.78581e-15)             (158.452 -4.2562 -0.698865)
        0.041             (4.18426e-13 -5.22651e-15 -5.22651e-15)             (159.099 -3.96323 -0.160346)
        0.042             (3.67501e-13 -5.84049e-15 -5.84049e-15)             (159.642 -3.8118 -0.0933508)
        0.043             (6.8263e-13 -5.24e-15 -5.24e-15)             (160.151 -3.71584 -0.0980968)
        0.044             (5.70501e-13 -5.50015e-15 -5.50015e-15)             (160.542 -3.64823 -0.0641006)
        0.045             (9.06527e-13 -4.68966e-15 -4.68966e-15)             (160.754 -3.56172 -0.0459793)
        0.046             (4.01724e-13 -4.51671e-15 -4.51671e-15)             (160.807 -3.43923 -0.0465503)
        0.047             (-3.91577e-14 -7.60362e-15 -7.60362e-15)             (160.867 -3.3268 -0.00324974)
        0.048             (-8.9055e-14 -5.40864e-15 -5.40864e-15)             (160.996 -3.24079 0.0884661)
        0.049             (-7.36376e-14 -7.03199e-15 -7.03199e-15)             (161.187 -3.18429 0.180288)
         0.05             (3.89913e-13 -6.52566e-15 -6.52566e-15)             (161.442 -3.10814 0.322775)
        0.051             (9.84295e-15 -9.17181e-15 -9.17181e-15)             (161.747 -3.0492 0.482757)
        0.052             (-3.55414e-13 -7.34526e-15 -7.34526e-15)             (162.011 -2.97069 0.677818)
        0.053             (-1.28737e-13 -6.06695e-15 -6.06695e-15)             (162.235 -2.86106 0.918746)
        0.054             (-4.51793e-13 -5.91436e-15 -5.91436e-15)             (162.415 -2.71512 1.21107)
        0.055             (-5.87513e-13 -6.15734e-15 -6.15734e-15)             (162.552 -2.53636 1.54589)
        0.056             (-6.00992e-13 -6.19456e-15 -6.19456e-15)             (162.655 -2.33181 1.90693)
        0.057             (-3.7764e-13 -5.67295e-15 -5.67295e-15)             (162.716 -2.12205 2.26368)
        0.058             (1.24014e-13 -9.40718e-15 -9.40718e-15)             (162.737 -1.91245 2.61126)
        0.059             (-4.6114e-13 -7.33126e-15 -7.33126e-15)             (162.754 -1.72646 2.93134)
         0.06             (-7.24301e-13 -8.90629e-15 -8.90629e-15)             (162.772 -1.56902 3.21754)
        0.061             (-4.52489e-13 -8.51174e-15 -8.51174e-15)             (162.794 -1.43733 3.47311)
        0.062             (-6.82306e-13 -7.94886e-15 -7.94886e-15)             (162.818 -1.32494 3.70643)
        0.063             (-1.11853e-12 -9.0454e-15 -9.0454e-15)             (162.843 -1.22455 3.92496)
        0.064             (-4.53259e-13 -7.93903e-15 -7.93903e-15)             (162.868 -1.1303 4.13247)
        0.065             (-5.10431e-13 -8.41084e-15 -8.41084e-15)             (162.892 -1.0395 4.33051)
        0.066             (-5.74934e-13 -7.76151e-15 -7.76151e-15)             (162.914 -0.95169 4.51962)
        0.067             (-9.74015e-13 -7.21016e-15 -7.21016e-15)             (162.934 -0.866652 4.69987)
        0.068             (-7.728e-13 -9.26095e-15 -9.26095e-15)             (162.955 -0.784351 4.87178)
        0.069             (-7.28133e-13 -8.89372e-15 -8.89372e-15)             (162.976 -0.704886 5.0354)
         0.07             (-4.60277e-13 -8.73647e-15 -8.73647e-15)             (162.994 -0.627667 5.19157)
        0.071             (-4.07826e-13 -8.11934e-15 -8.11934e-15)             (163.009 -0.551509 5.34198)
        0.072             (-4.21069e-13 -8.85793e-15 -8.85793e-15)             (163.019 -0.474618 5.48926)
        0.073             (-2.86834e-14 -1.01988e-14 -1.01988e-14)             (163.024 -0.394185 5.63691)
        0.074             (1.18483e-13 -1.10444e-14 -1.10444e-14)             (163.021 -0.306931 5.78871)
        0.075             (-2.15838e-13 -1.20253e-14 -1.20253e-14)             (163.011 -0.209939 5.94763)
        0.076             (-6.28112e-13 -9.22313e-15 -9.22313e-15)             (162.992 -0.102112 6.1146)
        0.077             (4.4564e-14 -1.16858e-14 -1.16858e-14)             (162.968 0.0147023 6.28742)
        0.078             (5.40864e-13 -1.03575e-14 -1.03575e-14)             (162.942 0.135635 6.46066)
        0.079             (-9.84328e-15 -1.0268e-14 -1.0268e-14)             (162.917 0.254089 6.62717)
         0.08             (-2.40962e-13 -1.27969e-14 -1.27969e-14)             (162.896 0.36401 6.78073)
        0.081             (-2.86612e-13 -9.99877e-15 -9.99877e-15)             (162.88 0.461939 6.9183)
        0.082             (-3.45724e-13 -1.00097e-14 -1.00097e-14)             (162.867 0.547762 7.04058)
        0.083             (-2.48909e-13 -9.74251e-15 -9.74251e-15)             (162.855 0.623861 7.15099)
        0.084             (-4.39685e-13 -9.1079e-15 -9.1079e-15)             (162.844 0.693302 7.2536)
        0.085             (-4.61233e-13 -8.8424e-15 -8.8424e-15)             (162.833 0.758132 7.35098)
        0.086             (-6.59502e-13 -1.01821e-14 -1.01821e-14)             (162.826 0.818893 7.44378)
        0.087             (-6.39444e-13 -9.28303e-15 -9.28303e-15)             (162.825 0.874663 7.53098)
        0.088             (-1.03317e-12 -9.35467e-15 -9.35467e-15)             (162.835 0.923471 7.61022)
        0.089             (-1.07288e-12 -9.48961e-15 -9.48961e-15)             (162.86 0.962354 7.6779)
         0.09             (-9.41987e-13 -9.97954e-15 -9.97954e-15)             (162.907 0.987054 7.72878)
        0.091             (-1.3152e-12 -9.62709e-15 -9.62709e-15)             (162.98 0.991845 7.75588)
        0.092             (-1.54688e-12 -9.84086e-15 -9.84086e-15)             (163.082 0.969991 7.75137)
        0.093             (-1.60886e-12 -9.32644e-15 -9.32644e-15)             (163.215 0.915083 7.70846)
        0.094             (-1.44326e-12 -1.08051e-14 -1.08051e-14)             (163.38 0.823044 7.62377)
        0.095             (-1.0209e-12 -1.00767e-14 -1.00767e-14)             (163.571 0.694053 7.49907)
        0.096             (-4.68177e-13 -9.80598e-15 -9.80598e-15)             (163.784 0.534275 7.34304)
        0.097             (-3.09421e-13 -1.16421e-14 -1.16421e-14)             (164.007 0.355658 7.16994)
        0.098             (-3.65631e-13 -1.13258e-14 -1.13258e-14)             (164.229 0.174148 6.99711)
        0.099             (-1.58272e-14 -1.21265e-14 -1.21265e-14)             (164.439 0.00576667 6.84112)
          0.1             (-3.7649e-13 -1.11025e-14 -1.11025e-14)             (164.628 -0.137822 6.71346)
        0.101             (-5.92625e-13 -1.17171e-14 -1.17171e-14)             (164.795 -0.25226 6.61758)
        0.102             (-9.16509e-13 -1.25078e-14 -1.25078e-14)             (164.942 -0.340696 6.54868)
        0.103             (-1.32199e-12 -1.28045e-14 -1.28045e-14)             (165.077 -0.411056 6.49705)
        0.104             (-1.19248e-12 -1.20717e-14 -1.20717e-14)             (165.202 -0.471944 6.45292)
        0.105             (-1.77944e-12 -1.30431e-14 -1.30431e-14)             (165.321 -0.52923 6.41053)
        0.106             (-1.28181e-12 -1.22764e-14 -1.22764e-14)             (165.436 -0.585088 6.36836)
        0.107             (-1.09209e-12 -1.22472e-14 -1.22472e-14)             (165.548 -0.639508 6.32731)
        0.108             (-1.2616e-12 -1.16345e-14 -1.16345e-14)             (165.657 -0.691566 6.28852)
        0.109             (-1.18224e-12 -1.20288e-14 -1.20288e-14)             (165.763 -0.740937 6.25218)
         0.11             (-6.03568e-13 -1.26502e-14 -1.26502e-14)             (165.866 -0.78798 6.21769)
        0.111             (-8.21921e-13 -1.14121e-14 -1.14121e-14)             (165.967 -0.833254 6.1844)
        0.112             (-5.51738e-13 -1.3116e-14 -1.3116e-14)             (166.065 -0.877102 6.15199)
        0.113             (-1.43316e-13 -1.2435e-14 -1.2435e-14)             (166.162 -0.919603 6.12049)
        0.114             (-1.10548e-13 -1.08778e-14 -1.08778e-14)             (166.258 -0.960751 6.08994)
        0.115             (-1.04071e-13 -1.46596e-14 -1.46596e-14)             (166.351 -1.0006 6.06025)
        0.116             (-4.57318e-13 -1.51932e-14 -1.51932e-14)             (166.443 -1.03923 6.0313)
        0.117             (-6.92974e-13 -1.45211e-14 -1.45211e-14)             (166.533 -1.07671 6.00299)
        0.118             (-3.23937e-13 -1.57483e-14 -1.57483e-14)             (166.622 -1.11309 5.9753)
        0.119             (-3.20646e-13 -1.57218e-14 -1.57218e-14)             (166.709 -1.14835 5.94824)
         0.12             (-9.42292e-13 -1.63023e-14 -1.63023e-14)             (166.794 -1.18247 5.92186)
        0.121             (-1.04042e-12 -1.6196e-14 -1.6196e-14)             (166.877 -1.21569 5.89598)
        0.122             (-1.00049e-12 -1.4031e-14 -1.4031e-14)             (166.959 -1.2478 5.87078)
        0.123             (-8.88012e-13 -1.43898e-14 -1.43898e-14)             (167.04 -1.27892 5.84622)
        0.124             (-1.17396e-12 -1.42484e-14 -1.42484e-14)             (167.119 -1.30906 5.8223)
        0.125             (-9.19144e-13 -1.43224e-14 -1.43224e-14)             (167.196 -1.33825 5.79901)
        0.126             (-5.94248e-13 -1.47038e-14 -1.47038e-14)             (167.273 -1.36651 5.77634)
        0.127             (-9.46093e-13 -1.493e-14 -1.493e-14)             (167.347 -1.39386 5.7543)
        0.128             (-6.63295e-13 -1.52779e-14 -1.52779e-14)             (167.421 -1.4203 5.73288)
        0.129             (-6.95976e-13 -1.46488e-14 -1.46488e-14)             (167.493 -1.44587 5.71208)
         0.13             (-1.72712e-13 -1.60255e-14 -1.60255e-14)             (167.563 -1.47058 5.69189)
        0.131             (-3.3838e-13 -1.81875e-14 -1.81875e-14)             (167.633 -1.49446 5.67231)
        0.132             (-9.13469e-13 -1.69697e-14 -1.69697e-14)             (167.701 -1.51755 5.65331)
        0.133             (-1.577e-12 -1.70628e-14 -1.70628e-14)             (167.768 -1.53985 5.63489)
        0.134             (-1.88938e-12 -1.62643e-14 -1.62643e-14)             (167.834 -1.56142 5.61702)
        0.135             (-1.55991e-12 -1.67985e-14 -1.67985e-14)             (167.898 -1.58226 5.59969)
        0.136             (-1.77375e-12 -1.5339e-14 -1.5339e-14)             (167.962 -1.60241 5.58288)
        0.137             (-1.02416e-12 -1.57853e-14 -1.57853e-14)             (168.024 -1.62188 5.56658)
        0.138             (-1.19741e-12 -1.62095e-14 -1.62095e-14)             (168.086 -1.64071 5.55076)
        0.139             (-1.49994e-12 -1.69609e-14 -1.69609e-14)             (168.146 -1.65891 5.53541)
         0.14             (-2.03186e-12 -1.61914e-14 -1.61914e-14)             (168.206 -1.67651 5.52051)
        0.141             (-2.22767e-12 -1.70361e-14 -1.70361e-14)             (168.264 -1.69353 5.50604)
        0.142             (-1.95914e-12 -1.64963e-14 -1.64963e-14)             (168.322 -1.71 5.49198)
        0.143             (-1.72813e-12 -1.66759e-14 -1.66759e-14)             (168.378 -1.72595 5.47832)
        0.144             (-1.56449e-12 -1.61878e-14 -1.61878e-14)             (168.434 -1.74138 5.46503)
        0.145             (-1.07657e-12 -1.65702e-14 -1.65702e-14)             (168.489 -1.75634 5.45211)
        0.146             (-1.14019e-12 -1.55493e-14 -1.55493e-14)             (168.543 -1.77082 5.43953)
        0.147             (-1.34431e-12 -1.53615e-14 -1.53615e-14)             (168.596 -1.78486 5.42729)
        0.148             (-1.48098e-12 -1.61103e-14 -1.61103e-14)             (168.649 -1.79847 5.41537)
        0.149             (-1.88714e-12 -1.69358e-14 -1.69358e-14)             (168.701 -1.8117 5.40376)
         0.15             (-1.55189e-12 -1.59103e-14 -1.59103e-14)             (168.752 -1.8245 5.39242)
        0.151             (-1.49905e-12 -1.47505e-14 -1.47505e-14)             (168.802 -1.83691 5.38138)
        0.152             (-1.86093e-12 -1.51355e-14 -1.51355e-14)             (168.852 -1.84897 5.37061)
        0.153             (-1.81689e-12 -1.51141e-14 -1.51141e-14)             (168.9 -1.86068 5.36009)
        0.154             (-1.87559e-12 -1.51171e-14 -1.51171e-14)             (168.949 -1.87205 5.34983)
        0.155             (-1.36553e-12 -1.57758e-14 -1.57758e-14)             (168.997 -1.8831 5.33981)
        0.156             (-7.98937e-13 -1.73162e-14 -1.73162e-14)             (169.044 -1.89383 5.33002)
        0.157             (-5.9155e-13 -1.52089e-14 -1.52089e-14)             (169.09 -1.90427 5.32047)
        0.158             (-1.21763e-12 -1.57856e-14 -1.57856e-14)             (169.136 -1.91442 5.31114)
        0.159             (-1.26509e-12 -1.58811e-14 -1.58811e-14)             (169.181 -1.92428 5.30202)
         0.16             (-1.00713e-12 -1.56462e-14 -1.56462e-14)             (169.226 -1.93387 5.29311)
        0.161             (-1.39282e-12 -1.63867e-14 -1.63867e-14)             (169.27 -1.9432 5.28439)
        0.162             (-1.59721e-12 -1.56139e-14 -1.56139e-14)             (169.314 -1.95228 5.27587)
        0.163             (-1.59829e-12 -1.60926e-14 -1.60926e-14)             (169.357 -1.9611 5.26753)
        0.164             (-1.57876e-12 -1.63279e-14 -1.63279e-14)             (169.4 -1.96969 5.25936)
        0.165             (-1.78953e-12 -1.58886e-14 -1.58886e-14)             (169.442 -1.97804 5.25137)
        0.166             (-1.61109e-12 -1.60884e-14 -1.60884e-14)             (169.484 -1.98617 5.24353)
        0.167             (-1.6762e-12 -1.67756e-14 -1.67756e-14)             (169.525 -1.99409 5.23586)
        0.168             (-1.3602e-12 -1.52468e-14 -1.52468e-14)             (169.566 -2.00179 5.22834)
        0.169             (-1.14642e-12 -1.57806e-14 -1.57806e-14)             (169.606 -2.00928 5.22097)
         0.17             (-1.40086e-12 -1.48283e-14 -1.48283e-14)             (169.646 -2.01658 5.21375)
        0.171             (-1.61723e-12 -1.52087e-14 -1.52087e-14)             (169.686 -2.02369 5.20667)
        0.172             (-2.16244e-12 -1.56333e-14 -1.56333e-14)             (169.725 -2.03061 5.19972)
        0.173             (-2.25658e-12 -1.59161e-14 -1.59161e-14)             (169.763 -2.03735 5.19291)
        0.174             (-2.40272e-12 -1.58486e-14 -1.58486e-14)             (169.801 -2.04392 5.18623)
        0.175             (-2.65283e-12 -1.57897e-14 -1.57897e-14)             (169.839 -2.05032 5.17968)
        0.176             (-2.55049e-12 -1.5679e-14 -1.5679e-14)             (169.876 -2.05655 5.17325)
        0.177             (-2.78496e-12 -1.67554e-14 -1.67554e-14)             (169.913 -2.06262 5.16695)
        0.178             (-2.36601e-12 -1.46456e-14 -1.46456e-14)             (169.95 -2.06854 5.16076)
        0.179             (-1.73869e-12 -1.56361e-14 -1.56361e-14)             (169.986 -2.0743 5.15468)
         0.18             (-1.22222e-12 -1.48648e-14 -1.48648e-14)             (170.022 -2.07992 5.14872)
        0.181             (-1.6205e-12 -1.5796e-14 -1.5796e-14)             (170.057 -2.0854 5.14286)
        0.182             (-2.20334e-12 -1.5175e-14 -1.5175e-14)             (170.092 -2.09073 5.13711)
        0.183             (-1.67153e-12 -1.4984e-14 -1.4984e-14)             (170.127 -2.09593 5.13147)
        0.184             (-1.41809e-12 -1.60861e-14 -1.60861e-14)             (170.161 -2.101 5.12592)
        0.185             (-1.58787e-12 -1.53904e-14 -1.53904e-14)             (170.195 -2.10595 5.12047)
        0.186             (-2.23775e-12 -1.51678e-14 -1.51678e-14)             (170.229 -2.11077 5.11512)
        0.187             (-2.10672e-12 -1.47044e-14 -1.47044e-14)             (170.263 -2.11546 5.10986)
        0.188             (-2.3625e-12 -1.59149e-14 -1.59149e-14)             (170.296 -2.12005 5.10469)
        0.189             (-2.38838e-12 -1.654e-14 -1.654e-14)             (170.329 -2.12451 5.09961)
         0.19             (-2.39706e-12 -1.55302e-14 -1.55302e-14)             (170.361 -2.12887 5.09461)
        0.191             (-2.5288e-12 -1.55786e-14 -1.55786e-14)             (170.393 -2.13312 5.0897)
        0.192             (-2.75163e-12 -1.50498e-14 -1.50498e-14)             (170.425 -2.13727 5.08487)
        0.193             (-2.97321e-12 -1.55182e-14 -1.55182e-14)             (170.457 -2.14131 5.08012)
        0.194             (-2.50292e-12 -1.53595e-14 -1.53595e-14)             (170.488 -2.14526 5.07544)
        0.195             (-2.69617e-12 -1.61519e-14 -1.61519e-14)             (170.519 -2.1491 5.07084)
        0.196             (-2.92263e-12 -1.63804e-14 -1.63804e-14)             (170.55 -2.15286 5.06632)
        0.197             (-2.84536e-12 -1.5732e-14 -1.5732e-14)             (170.58 -2.15652 5.06186)
        0.198             (-2.08001e-12 -1.49145e-14 -1.49145e-14)             (170.611 -2.16009 5.05748)
        0.199             (-2.208e-12 -1.58966e-14 -1.58966e-14)             (170.641 -2.16358 5.05317)
          0.2             (-2.06802e-12 -1.54095e-14 -1.54095e-14)             (170.67 -2.16698 5.04892)
        0.201             (-1.83905e-12 -1.66922e-14 -1.66922e-14)             (170.7 -2.1703 5.04474)
        0.202             (-1.48376e-12 -1.656e-14 -1.656e-14)             (170.729 -2.17354 5.04062)
        0.203             (-1.0441e-12 -1.57526e-14 -1.57526e-14)             (170.758 -2.17671 5.03655)
        0.204             (-1.28998e-12 -1.53925e-14 -1.53925e-14)             (170.787 -2.17978 5.03262)
        0.205             (-1.314e-12 -1.65842e-14 -1.65842e-14)             (170.815 -2.1828 5.02862)
        0.206             (-1.66287e-12 -1.60746e-14 -1.60746e-14)             (170.843 -2.18573 5.02474)
        0.207             (-1.78519e-12 -1.58883e-14 -1.58883e-14)             (170.871 -2.18859 5.02092)
        0.208             (-1.7891e-12 -1.56751e-14 -1.56751e-14)             (170.899 -2.19138 5.01715)
        0.209             (-1.65169e-12 -1.73775e-14 -1.73775e-14)             (170.927 -2.19411 5.01344)
         0.21             (-1.5738e-12 -1.63372e-14 -1.63372e-14)             (170.954 -2.19678 5.00979)
        0.211             (-1.86205e-12 -1.6587e-14 -1.6587e-14)             (170.981 -2.19939 5.00618)
        0.212             (-2.13467e-12 -1.6111e-14 -1.6111e-14)             (171.008 -2.20193 5.00262)
        0.213             (-1.92167e-12 -1.53853e-14 -1.53853e-14)             (171.035 -2.20441 4.99912)
        0.214             (-1.72607e-12 -1.77157e-14 -1.77157e-14)             (171.062 -2.20684 4.99567)
        0.215             (-1.40823e-12 -1.57081e-14 -1.57081e-14)             (171.088 -2.20921 4.99226)
        0.216             (-1.4231e-12 -1.67097e-14 -1.67097e-14)             (171.115 -2.21153 4.9889)
        0.217             (-1.67682e-12 -1.66137e-14 -1.66137e-14)             (171.141 -2.21379 4.98559)
        0.218             (-1.84667e-12 -1.53065e-14 -1.53065e-14)             (171.166 -2.216 4.98232)
        0.219             (-1.47097e-12 -1.53485e-14 -1.53485e-14)             (171.192 -2.21815 4.9791)
         0.22             (-1.35608e-12 -1.56993e-14 -1.56993e-14)             (171.218 -2.22026 4.97591)
        0.221             (-1.41851e-12 -1.52558e-14 -1.52558e-14)             (171.243 -2.22232 4.97277)
        0.222             (-1.5088e-12 -1.54632e-14 -1.54632e-14)             (171.268 -2.22433 4.96967)
        0.223             (-1.48797e-12 -1.57015e-14 -1.57015e-14)             (171.293 -2.22629 4.96661)
        0.224             (-1.52055e-12 -1.61882e-14 -1.61882e-14)             (171.317 -2.2282 4.96359)
        0.225             (-1.11007e-12 -1.44353e-14 -1.44353e-14)             (171.342 -2.23007 4.96061)
        0.226             (-1.74923e-12 -1.66203e-14 -1.66203e-14)             (171.366 -2.2319 4.95766)
        0.227             (-1.86592e-12 -1.49674e-14 -1.49674e-14)             (171.391 -2.23368 4.95475)
        0.228             (-2.22843e-12 -1.6124e-14 -1.6124e-14)             (171.415 -2.23542 4.95187)
        0.229             (-2.403e-12 -1.67789e-14 -1.67789e-14)             (171.439 -2.23713 4.94903)
         0.23             (-2.15065e-12 -1.58546e-14 -1.58546e-14)             (171.462 -2.23879 4.94623)
        0.231             (-2.15288e-12 -1.66401e-14 -1.66401e-14)             (171.486 -2.24041 4.94345)
        0.232             (-1.95074e-12 -1.4548e-14 -1.4548e-14)             (171.509 -2.242 4.94071)
        0.233             (-1.54557e-12 -1.61043e-14 -1.61043e-14)             (171.532 -2.24355 4.938)
        0.234             (-1.04158e-12 -1.45636e-14 -1.45636e-14)             (171.556 -2.24506 4.93533)
        0.235             (-7.98667e-13 -1.61391e-14 -1.61391e-14)             (171.579 -2.24654 4.93268)
        0.236             (-1.48567e-13 -1.79203e-14 -1.79203e-14)             (171.601 -2.24798 4.93006)
        0.237             (-1.83009e-13 -1.5255e-14 -1.5255e-14)             (171.624 -2.24939 4.92747)
        0.238             (-6.58403e-13 -1.77967e-14 -1.77967e-14)             (171.646 -2.25077 4.92491)
        0.239             (-5.27397e-13 -1.69904e-14 -1.69904e-14)             (171.669 -2.25211 4.92238)
         0.24             (1.14561e-13 -1.576e-14 -1.576e-14)             (171.691 -2.25342 4.91987)
        0.241             (1.90987e-13 -1.61837e-14 -1.61837e-14)             (171.713 -2.25471 4.91739)
        0.242             (-5.09708e-13 -1.83275e-14 -1.83275e-14)             (171.735 -2.25596 4.91494)
        0.243             (-1.18859e-12 -1.71659e-14 -1.71659e-14)             (171.757 -2.25718 4.91252)
        0.244             (-1.01968e-12 -1.70588e-14 -1.70588e-14)             (171.779 -2.25838 4.91012)
        0.245             (-9.70088e-13 -1.78894e-14 -1.78894e-14)             (171.8 -2.25954 4.90774)
        0.246             (-9.71492e-13 -1.62169e-14 -1.62169e-14)             (171.821 -2.26068 4.90539)
        0.247             (-9.93596e-13 -1.66333e-14 -1.66333e-14)             (171.843 -2.26179 4.90306)
        0.248             (-1.56173e-12 -1.67508e-14 -1.67508e-14)             (171.864 -2.26288 4.90075)
        0.249             (-1.39505e-12 -1.64908e-14 -1.64908e-14)             (171.885 -2.26394 4.89847)
         0.25             (-1.51105e-12 -1.62343e-14 -1.62343e-14)             (171.906 -2.26497 4.89621)
        0.251             (-1.38723e-12 -1.72217e-14 -1.72217e-14)             (171.926 -2.26598 4.89398)
        0.252             (-1.02503e-12 -1.6854e-14 -1.6854e-14)             (171.947 -2.26697 4.89177)
        0.253             (-7.84185e-13 -1.70967e-14 -1.70967e-14)             (171.968 -2.26793 4.8896)
        0.254             (-2.89448e-13 -1.64897e-14 -1.64897e-14)             (171.988 -2.26887 4.88745)
        0.255             (2.5049e-13 -1.47142e-14 -1.47142e-14)             (172.009 -2.26979 4.88533)
        0.256             (2.70266e-12 -1.37585e-14 -1.37585e-14)             (172.029 -2.27069 4.88323)
        0.257             (1.00729e-11 -7.14449e-15 -7.14449e-15)             (172.049 -2.27158 4.88115)
        0.258             (3.04263e-11 6.33565e-15 6.33565e-15)             (172.069 -2.27244 4.87909)
        0.259             (8.2982e-11 4.51149e-14 4.51149e-14)             (172.089 -2.27329 4.87705)
         0.26             (2.15276e-10 1.37956e-13 1.37956e-13)             (172.109 -2.27411 4.87502)
        0.261             (5.32695e-10 3.52427e-13 3.52427e-13)             (172.129 -2.27492 4.873)
        0.262             (1.27708e-09 8.43108e-13 8.43108e-13)             (172.148 -2.2757 4.871)
        0.263             (2.97712e-09 1.92676e-12 1.92676e-12)             (172.168 -2.27646 4.86901)
        0.264             (6.75413e-09 4.26349e-12 4.26349e-12)             (172.187 -2.2772 4.86703)
        0.265             (1.49173e-08 9.14379e-12 9.14379e-12)             (172.206 -2.27793 4.86506)
        0.266             (3.20648e-08 1.90447e-11 1.90447e-11)             (172.226 -2.27863 4.8631)
        0.267             (6.70892e-08 3.85468e-11 3.85468e-11)             (172.244 -2.27931 4.86116)
        0.268             (1.36647e-07 7.58285e-11 7.58285e-11)             (172.263 -2.27998 4.85924)
        0.269             (2.70941e-07 1.44994e-10 1.44994e-10)             (172.282 -2.28062 4.85733)
         0.27             (5.2299e-07 2.69476e-10 2.69476e-10)             (172.301 -2.28125 4.85543)
        0.271             (9.82803e-07 4.86773e-10 4.86773e-10)             (172.319 -2.28187 4.85355)
        0.272             (1.79812e-06 8.54608e-10 8.54608e-10)             (172.338 -2.28246 4.85169)
        0.273             (3.20325e-06 1.45827e-09 1.45827e-09)             (172.356 -2.28305 4.84984)
        0.274             (5.55694e-06 2.41856e-09 2.41856e-09)             (172.374 -2.28361 4.848)
        0.275             (9.38913e-06 3.8991e-09 3.8991e-09)             (172.392 -2.28416 4.84618)
        0.276             (1.54546e-05 6.11125e-09 6.11125e-09)             (172.41 -2.2847 4.84437)
        0.277             (2.4789e-05 9.31449e-09 9.31449e-09)             (172.428 -2.28522 4.84258)
        0.278             (3.876e-05 1.38102e-08 1.38102e-08)             (172.446 -2.28573 4.84079)
        0.279             (5.91053e-05 1.99274e-08 1.99274e-08)             (172.464 -2.28622 4.83903)
         0.28             (8.79464e-05 2.80009e-08 2.80009e-08)             (172.481 -2.2867 4.83727)
        0.281             (0.000127772 3.83431e-08 3.83431e-08)             (172.499 -2.28717 4.83553)
        0.282             (0.000181385 5.12149e-08 5.12149e-08)             (172.516 -2.28762 4.83381)
        0.283             (0.000251816 6.67994e-08 6.67994e-08)             (172.534 -2.28807 4.83209)