# Probe 0 (-45 0 0)
# Probe 1 (6 0 0)
#       Probe             0             1
#        Time
            0             (0 0 0)             (0 0 0)
         0.01             (2.44639e-13 0 0)             (15.0646 0 0)
         0.02             (4.2101e-13 0 0)             (33.4041 0 0)
         0.03             (6.18152e-13 0 0)             (61.5735 0 0)
         0.04             (1.41943e-13 0 0)             (111.416 0 0)
         0.05             (5.1526e-13 0 0)             (187.351 0 0)
         0.06             (-1.02515e-13 0 0)             (213.872 0 0)
         0.07             (4.16119e-13 0 0)             (216.293 0 0)
         0.08             (9.51999e-13 0 0)             (216.01 0 0)
         0.09             (9.23497e-13 0 0)             (215.38 0 0)
          0.1             (1.027e-12 0 0)             (214.815 0 0)
         0.11             (9.88683e-13 0 0)             (214.393 0 0)
         0.12             (1.68217e-12 0 0)             (214.12 0 0)
         0.13             (1.10874e-12 0 0)             (213.968 0 0)
         0.14             (8.17962e-13 0 0)             (214.006 0 0)
         0.15             (7.91605e-13 0 0)             (214.247 0 0)
         0.16             (9.81992e-13 0 0)             (214.11 0 0)
         0.17             (3.74642e-13 0 0)             (214.19 0 0)
         0.18             (1.51492e-13 0 0)             (214.231 0 0)
         0.19             (6.05123e-13 0 0)             (214.242 0 0)
          0.2             (4.75045e-13 0 0)             (214.232 0 0)
         0.21             (4.90086e-13 0 0)             (214.084 0 0)
         0.22             (3.89663e-13 0 0)             (214.034 0 0)
         0.23             (5.39141e-14 0 0)             (214.033 0 0)
         0.24             (-2.67808e-13 0 0)             (214.123 0 0)
         0.25             (-1.25367e-12 0 0)             (214.364 0 0)
         0.26             (-4.60135e-13 0 0)             (214.165 0 0)
         0.27             (7.56322e-11 0 0)             (214.238 0 0)
         0.28             (1.8261e-07 0 0)             (214.291 0 0)
         0.29             (3.55128e-05 0 0)             (214.305 0 0)
          0.3             (0.000740513 0 0)             (214.298 0 0)
         0.31             (0.00377155 0 0)             (214.281 0 0)
         0.32             (0.0111075 0 0)             (214.278 0 0)
         0.33             (0.026687 0 0)             (214.402 0 0)
         0.34             (0.0582212 0 0)             (214.134 0 0)
         0.35             (0.120547 0 0)             (214.059 0 0)
         0.36             (0.241273 0 0)             (214.029 0 0)
         0.37             (0.468734 0 0)             (214.021 0 0)
         0.38             (0.878003 0 0)             (214.086 0 0)
         0.39             (1.5628 0 0)             (214.307 0 0)
          0.4             (2.60314 0 0)             (214.313 0 0)
         0.41             (4.02074 0 0)             (214.189 0 0)
         0.42             (5.75787 0 0)             (214.22 0 0)
         0.43             (7.69534 0 0)             (214.225 0 0)
         0.44             (9.68397 0 0)             (214.23 0 0)
         0.45             (11.5614 0 0)             (214.242 0 0)
         0.46             (13.1561 0 0)             (214.267 0 0)
         0.47             (14.3003 0 0)             (214.313 0 0)
         0.48             (14.86 0 0)             (214.386 0 0)
         0.49             (14.7622 0 0)             (214.427 0 0)
          0.5             (13.9485 0 0)             (214.113 0 0)
         0.51             (12.6773 0 0)             (214.031 0 0)
         0.52             (11.0967 0 0)             (214.028 0 0)
         0.53             (9.30302 0 0)             (214.082 0 0)
         0.54             (7.42438 0 0)             (214.236 0 0)
         0.55             (5.68774 0 0)             (214.383 0 0)
         0.56             (4.14062 0 0)             (214.237 0 0)
         0.57             (2.82187 0 0)             (214.212 0 0)
         0.58             (1.77675 0 0)             (214.24 0 0)
         0.59             (1.01749 0 0)             (214.272 0 0)
          0.6             (0.512836 0 0)             (214.317 0 0)
         0.61             (0.204372 0 0)             (214.382 0 0)
         0.62             (0.0308648 0 0)             (214.44 0 0)
         0.63             (-0.0569479 0 0)             (214.119 0 0)
         0.64             (-0.0934179 0 0)             (214.033 0 0)
         0.65             (-0.100879 0 0)             (214.019 0 0)
         0.66             (-0.0932045 0 0)             (214.039 0 0)
         0.67             (-0.0787409 0 0)             (214.117 0 0)
         0.68             (-0.0651174 0 0)             (214.311 0 0)
         0.69             (-0.0532113 0 0)             (214.335 0 0)
          0.7             (-0.0437826 0 0)             (214.181 0 0)
         0.71             (-0.0370989 0 0)             (214.204 0 0)
         0.72             (-0.0324928 0 0)             (214.203 0 0)
         0.73             (-0.0293537 0 0)             (214.191 0 0)
         0.74             (-0.0268648 0 0)             (214.169 0 0)
         0.75             (-0.0242413 0 0)             (214.136 0 0)
         0.76             (-0.0209307 0 0)             (214.091 0 0)
         0.77             (-0.0167483 0 0)             (214.036 0 0)
         0.78             (-0.0118871 0 0)             (213.973 0 0)
         0.79             (-0.00681255 0 0)             (213.911 0 0)
          0.8             (-0.00209931 0 0)             (213.858 0 0)
         0.81             (0.00171741 0 0)             (213.819 0 0)
         0.82             (0.00423335 0 0)             (213.797 0 0)
         0.83             (0.00519917 0 0)             (213.785 0 0)
         0.84             (0.0045439 0 0)             (213.775 0 0)
         0.85             (0.00242281 0 0)             (213.718 0 0)
         0.86             (-0.000707562 0 0)             (213.975 0 0)
         0.87             (-0.00392888 0 0)             (213.818 0 0)
         0.88             (-0.00639736 0 0)             (213.805 0 0)
         0.89             (-0.00752275 0 0)             (213.86 0 0)
          0.9             (-0.00702009 0 0)             (213.934 0 0)
         0.91             (-0.00499781 0 0)             (213.998 0 0)
         0.92             (-0.00196502 0 0)             (214.052 0 0)
         0.93             (0.00127091 0 0)             (214.03 0 0)
         0.94             (0.0041429 0 0)             (214.205 0 0)
         0.95             (0.00627883 0 0)             (214.32 0 0)
         0.96             (0.00773561 0 0)             (214.21 0 0)
         0.97             (0.00934951 0 0)             (214.291 0 0)
         0.98             (0.01252 0 0)             (214.331 0 0)
         0.99             (0.0187938 0 0)             (214.356 0 0)
            1             (0.0300762 0 0)             (214.376 0 0)
