# Probe 0 (-45 0 0)
# Probe 1 (6 0 0)
#       Probe             0             1
#        Time
            0             (0 0 0)             (0 0 0)
         0.01             (-1.03739e-12 0 0)             (20.6802 0 0)
         0.02             (-4.26324e-14 0 0)             (41.2785 0 0)
         0.03             (-4.47642e-13 0 0)             (60.9307 0 0)
         0.04             (7.10544e-14 0 0)             (79.2992 0 0)
         0.05             (-3.69482e-13 0 0)             (96.1876 0 0)
         0.06             (-4.26325e-13 0 0)             (111.493 0 0)
         0.07             (-1.42106e-14 0 0)             (125.191 0 0)
         0.08             (-4.97378e-14 0 0)             (137.318 0 0)
         0.09             (-4.97378e-14 0 0)             (147.959 0 0)
          0.1             (8.31335e-13 0 0)             (157.226 0 0)
         0.11             (1.42109e-14 0 0)             (165.248 0 0)
         0.12             (1.06581e-13 0 0)             (172.159 0 0)
         0.13             (-8.31335e-13 0 0)             (178.092 0 0)
         0.14             (1.42109e-14 0 0)             (183.175 0 0)
         0.15             (4.47642e-13 0 0)             (187.524 0 0)
         0.16             (-9.23707e-14 0 0)             (191.242 0 0)
         0.17             (-3.83693e-13 0 0)             (194.423 0 0)
         0.18             (3.19744e-13 0 0)             (197.147 0 0)
         0.19             (9.23702e-14 0 0)             (199.482 0 0)
          0.2             (-1.77636e-13 0 0)             (201.488 0 0)
         0.21             (1.44951e-12 0 0)             (203.215 0 0)
         0.22             (2.20268e-13 0 0)             (204.705 0 0)
         0.23             (8.10018e-13 0 0)             (205.993 0 0)
         0.24             (1.8474e-13 0 0)             (207.111 0 0)
         0.25             (7.03437e-13 0 0)             (208.084 0 0)
         0.26             (1.46301e-11 0 0)             (208.932 0 0)
         0.27             (2.77485e-07 0 0)             (209.673 0 0)
         0.28             (0.000595041 0 0)             (210.323 0 0)
         0.29             (0.104658 0 0)             (210.894 0 0)
          0.3             (1.80046 0 0)             (211.396 0 0)
         0.31             (6.71155 0 0)             (211.84 0 0)
         0.32             (12.8261 0 0)             (212.231 0 0)
         0.33             (18.7642 0 0)             (212.578 0 0)
         0.34             (24.2975 0 0)             (212.886 0 0)
         0.35             (29.0178 0 0)             (213.16 0 0)
         0.36             (30.7556 0 0)             (213.403 0 0)
         0.37             (29.7594 0 0)             (213.62 0 0)
         0.38             (28.1869 0 0)             (213.814 0 0)
         0.39             (26.7525 0 0)             (213.987 0 0)
          0.4             (25.5112 0 0)             (214.142 0 0)
         0.41             (24.4215 0 0)             (214.281 0 0)
         0.42             (23.45 0 0)             (214.405 0 0)
         0.43             (22.5748 0 0)             (214.517 0 0)
         0.44             (21.7804 0 0)             (214.618 0 0)
         0.45             (21.0538 0 0)             (214.708 0 0)
         0.46             (20.3844 0 0)             (214.79 0 0)
         0.47             (19.7643 0 0)             (214.863 0 0)
         0.48             (19.1873 0 0)             (214.93 0 0)
         0.49             (18.6483 0 0)             (214.99 0 0)
          0.5             (18.143 0 0)             (215.035 0 0)
         0.51             (17.6679 0 0)             (214.714 0 0)
         0.52             (17.2196 0 0)             (212.473 0 0)
         0.53             (16.7958 0 0)             (208.471 0 0)
         0.54             (16.3948 0 0)             (204.401 0 0)
         0.55             (16.0143 0 0)             (200.947 0 0)
         0.56             (15.6526 0 0)             (198.162 0 0)
         0.57             (15.3087 0 0)             (195.952 0 0)
         0.58             (14.9809 0 0)             (194.213 0 0)
         0.59             (14.6677 0 0)             (192.856 0 0)
          0.6             (14.3685 0 0)             (191.808 0 0)
         0.61             (14.0822 0 0)             (191.01 0 0)
         0.62             (13.8081 0 0)             (190.411 0 0)
         0.63             (13.5455 0 0)             (189.972 0 0)
         0.64             (13.2936 0 0)             (189.659 0 0)
         0.65             (13.0519 0 0)             (189.445 0 0)
         0.66             (12.8198 0 0)             (189.307 0 0)
         0.67             (12.5967 0 0)             (189.227 0 0)
         0.68             (12.3822 0 0)             (189.191 0 0)
         0.69             (12.176 0 0)             (189.188 0 0)
          0.7             (11.9774 0 0)             (189.206 0 0)
         0.71             (11.7864 0 0)             (189.239 0 0)
         0.72             (11.6024 0 0)             (189.28 0 0)
         0.73             (11.4253 0 0)             (189.324 0 0)
         0.74             (11.2547 0 0)             (189.368 0 0)
         0.75             (11.0904 0 0)             (189.408 0 0)
         0.76             (10.9323 0 0)             (189.442 0 0)
         0.77             (10.78 0 0)             (189.467 0 0)
         0.78             (10.6334 0 0)             (189.483 0 0)
         0.79             (10.4925 0 0)             (189.489 0 0)
          0.8             (10.357 0 0)             (189.483 0 0)
         0.81             (10.227 0 0)             (189.465 0 0)
         0.82             (10.1022 0 0)             (189.436 0 0)
         0.83             (9.98278 0 0)             (189.394 0 0)
         0.84             (9.86871 0 0)             (189.34 0 0)
         0.85             (9.76016 0 0)             (189.273 0 0)
         0.86             (9.65733 0 0)             (189.195 0 0)
         0.87             (9.56052 0 0)             (189.104 0 0)
         0.88             (9.46988 0 0)             (189.002 0 0)
         0.89             (9.38519 0 0)             (188.888 0 0)
          0.9             (9.30569 0 0)             (188.763 0 0)
         0.91             (9.23018 0 0)             (188.626 0 0)
         0.92             (9.15903 0 0)             (188.479 0 0)
         0.93             (9.09801 0 0)             (188.321 0 0)
         0.94             (9.06123 0 0)             (188.153 0 0)
         0.95             (9.0713 0 0)             (187.974 0 0)
         0.96             (9.19733 0 0)             (187.785 0 0)
         0.97             (9.55816 0 0)             (187.586 0 0)
         0.98             (10.2016 0 0)             (187.378 0 0)
         0.99             (11.0512 0 0)             (187.159 0 0)
            1             (11.9846 0 0)             (186.931 0 0)
