/*--------------------------------*- C++ -*----------------------------------*\
| =========                 |                                                 |
| \\      /  F ield         | OpenFOAM: The Open Source CFD Toolbox           |
|  \\    /   O peration     | Version:  2.4.0                                 |
|   \\  /    A nd           | Web:      www.OpenFOAM.org                      |
|    \\/     M anipulation  |                                                 |
\*---------------------------------------------------------------------------*/
FoamFile
{
    version     2.0;
    format      ascii;
    class       volScalarField;
    location    "0.19";
    object      p;
}
// * * * * * * * * * * * * * * * * * * * * * * * * * * * * * * * * * * * * * //

dimensions      [1 -1 -2 0 0 0 0];

internalField   nonuniform List<scalar> 
1000
(
5e+06
5e+06
5e+06
5e+06
5e+06
5e+06
5e+06
5e+06
5e+06
5e+06
5e+06
5e+06
5e+06
5e+06
5e+06
5e+06
5e+06
5e+06
5e+06
5e+06
5e+06
5e+06
5e+06
5e+06
5e+06
5e+06
5e+06
5e+06
5e+06
5e+06
5e+06
5e+06
5e+06
5e+06
5e+06
5e+06
5e+06
5e+06
5e+06
5e+06
5e+06
5e+06
5e+06
5e+06
5e+06
5e+06
5e+06
5e+06
5e+06
5e+06
5e+06
5e+06
5e+06
5e+06
5e+06
5e+06
5e+06
5e+06
5e+06
5e+06
5e+06
5e+06
5e+06
5e+06
5e+06
5e+06
5e+06
5e+06
5e+06
5e+06
5e+06
5e+06
5e+06
5e+06
5e+06
5e+06
5e+06
5e+06
5e+06
5e+06
5e+06
5e+06
5e+06
5e+06
5e+06
5e+06
5e+06
5e+06
5e+06
5e+06
5e+06
5e+06
5e+06
5e+06
5e+06
5e+06
5e+06
5e+06
5e+06
5e+06
5e+06
5e+06
5e+06
5e+06
5e+06
5e+06
5e+06
5e+06
5e+06
5e+06
5e+06
5e+06
5e+06
5e+06
5e+06
5e+06
5e+06
5e+06
5e+06
5e+06
5e+06
5e+06
5e+06
5e+06
5e+06
5e+06
5e+06
5e+06
5e+06
5e+06
5e+06
5e+06
5e+06
5e+06
5e+06
5e+06
5e+06
5e+06
5e+06
5e+06
5e+06
5e+06
5e+06
5e+06
5e+06
5e+06
5e+06
5e+06
5e+06
5e+06
5e+06
5e+06
5e+06
5e+06
5e+06
5e+06
5e+06
5e+06
5e+06
5e+06
5e+06
5e+06
5e+06
5e+06
5e+06
5e+06
5e+06
5e+06
5e+06
5e+06
5e+06
5e+06
5e+06
5e+06
5e+06
5e+06
5e+06
5e+06
5e+06
5e+06
5e+06
5e+06
5e+06
5e+06
5e+06
5e+06
5e+06
5e+06
5e+06
5e+06
5e+06
5e+06
5e+06
5e+06
5e+06
5e+06
5e+06
5e+06
5e+06
5e+06
5e+06
5e+06
5e+06
5e+06
5e+06
5e+06
5e+06
5e+06
5e+06
5e+06
5e+06
5e+06
5e+06
5e+06
5e+06
5e+06
5e+06
5e+06
5e+06
5e+06
5e+06
5e+06
5e+06
5e+06
5e+06
5e+06
5e+06
5e+06
5e+06
5e+06
5e+06
5e+06
5e+06
5e+06
5e+06
5e+06
5e+06
5e+06
5e+06
5e+06
5e+06
5e+06
5e+06
5e+06
5e+06
5e+06
5e+06
5e+06
5e+06
5e+06
5e+06
5e+06
5e+06
5e+06
5e+06
5e+06
5e+06
5e+06
5e+06
5e+06
5e+06
5e+06
5e+06
5e+06
5e+06
5e+06
5e+06
5e+06
5e+06
5e+06
5e+06
5e+06
5e+06
5e+06
5e+06
5e+06
5e+06
5e+06
5e+06
5e+06
5e+06
5e+06
5e+06
5e+06
5e+06
5e+06
5e+06
5e+06
5e+06
5e+06
5e+06
5e+06
5e+06
5e+06
5e+06
5e+06
5e+06
5e+06
5e+06
5e+06
5e+06
5e+06
5e+06
5e+06
5e+06
5e+06
5e+06
5e+06
5e+06
5e+06
5e+06
5e+06
5e+06
5e+06
5e+06
5e+06
5e+06
5e+06
5e+06
5e+06
5e+06
5e+06
5e+06
5e+06
5e+06
5e+06
5e+06
5e+06
5e+06
5e+06
5e+06
5e+06
5e+06
5e+06
5e+06
5e+06
5e+06
5e+06
5e+06
5e+06
5e+06
5e+06
5e+06
5e+06
5e+06
5e+06
5e+06
5e+06
5e+06
5e+06
5e+06
5e+06
5e+06
5e+06
5e+06
5e+06
5e+06
5e+06
5e+06
5e+06
5e+06
5e+06
5e+06
5e+06
5e+06
5e+06
5e+06
5e+06
5e+06
4.99999e+06
4.99999e+06
4.99999e+06
4.99999e+06
4.99999e+06
4.99998e+06
4.99998e+06
4.99997e+06
4.99996e+06
4.99995e+06
4.99994e+06
4.99993e+06
4.99991e+06
4.99989e+06
4.99986e+06
4.99983e+06
4.99979e+06
4.99974e+06
4.99969e+06
4.99962e+06
4.99954e+06
4.99944e+06
4.99933e+06
4.9992e+06
4.99905e+06
4.99887e+06
4.99866e+06
4.99842e+06
4.99814e+06
4.99781e+06
4.99745e+06
4.99703e+06
4.99655e+06
4.99601e+06
4.99539e+06
4.99471e+06
4.99394e+06
4.99308e+06
4.99213e+06
4.99108e+06
4.98991e+06
4.98864e+06
4.98724e+06
4.98571e+06
4.98406e+06
4.98226e+06
4.98032e+06
4.97823e+06
4.97599e+06
4.9736e+06
4.97105e+06
4.96833e+06
4.96546e+06
4.96242e+06
4.95923e+06
4.95587e+06
4.95234e+06
4.94866e+06
4.94482e+06
4.94083e+06
4.93669e+06
4.93239e+06
4.92796e+06
4.92338e+06
4.91868e+06
4.91384e+06
4.90888e+06
4.9038e+06
4.8986e+06
4.8933e+06
4.8879e+06
4.8824e+06
4.87681e+06
4.87114e+06
4.86539e+06
4.85956e+06
4.85367e+06
4.84771e+06
4.8417e+06
4.83563e+06
4.82952e+06
4.82336e+06
4.81716e+06
4.81092e+06
4.80466e+06
4.79836e+06
4.79204e+06
4.7857e+06
4.77934e+06
4.77297e+06
4.76658e+06
4.76018e+06
4.75378e+06
4.74737e+06
4.74095e+06
4.73453e+06
4.72811e+06
4.72169e+06
4.71528e+06
4.70887e+06
4.70246e+06
4.69605e+06
4.68966e+06
4.68327e+06
4.67688e+06
4.67051e+06
4.66414e+06
4.65779e+06
4.65144e+06
4.6451e+06
4.63878e+06
4.63246e+06
4.62616e+06
4.61986e+06
4.61358e+06
4.60731e+06
4.60104e+06
4.59479e+06
4.58855e+06
4.58233e+06
4.57611e+06
4.5699e+06
4.56371e+06
4.55752e+06
4.55135e+06
4.54519e+06
4.53904e+06
4.53289e+06
4.52676e+06
4.52064e+06
4.51453e+06
4.50843e+06
4.50234e+06
4.49626e+06
4.49018e+06
4.48412e+06
4.47807e+06
4.47203e+06
4.46599e+06
4.45997e+06
4.45395e+06
4.44794e+06
4.44194e+06
4.43595e+06
4.42997e+06
4.424e+06
4.41803e+06
4.41208e+06
4.40613e+06
4.40019e+06
4.39425e+06
4.38833e+06
4.38241e+06
4.3765e+06
4.3706e+06
4.3647e+06
4.35882e+06
4.35294e+06
4.34706e+06
4.3412e+06
4.33534e+06
4.32949e+06
4.32364e+06
4.3178e+06
4.31197e+06
4.30615e+06
4.30033e+06
4.29452e+06
4.28871e+06
4.28292e+06
4.27712e+06
4.27134e+06
4.26556e+06
4.25979e+06
4.25402e+06
4.24826e+06
4.24251e+06
4.23676e+06
4.23102e+06
4.22528e+06
4.21955e+06
4.21383e+06
4.20811e+06
4.2024e+06
4.1967e+06
4.191e+06
4.1853e+06
4.17962e+06
4.17393e+06
4.16826e+06
4.16259e+06
4.15692e+06
4.15126e+06
4.14561e+06
4.13996e+06
4.13432e+06
4.12868e+06
4.12305e+06
4.11742e+06
4.1118e+06
4.10619e+06
4.10058e+06
4.09497e+06
4.08937e+06
4.08378e+06
4.07819e+06
4.0726e+06
4.06702e+06
4.06145e+06
4.05588e+06
4.05031e+06
4.04475e+06
4.0392e+06
4.03365e+06
4.0281e+06
4.02256e+06
4.01702e+06
4.01149e+06
4.00596e+06
4.00044e+06
3.99492e+06
3.9894e+06
3.98389e+06
3.97839e+06
3.97289e+06
3.96739e+06
3.96189e+06
3.9564e+06
3.95092e+06
3.94543e+06
3.93996e+06
3.93448e+06
3.92901e+06
3.92354e+06
3.91808e+06
3.91262e+06
3.90717e+06
3.90171e+06
3.89626e+06
3.89082e+06
3.88538e+06
3.87994e+06
3.8745e+06
3.86907e+06
3.86364e+06
3.85822e+06
3.8528e+06
3.84738e+06
3.84196e+06
3.83655e+06
3.83114e+06
3.82573e+06
3.82033e+06
3.81493e+06
3.80953e+06
3.80414e+06
3.79874e+06
3.79335e+06
3.78797e+06
3.78258e+06
3.7772e+06
3.77182e+06
3.76645e+06
3.76108e+06
3.75571e+06
3.75034e+06
3.74497e+06
3.73961e+06
3.73425e+06
3.72889e+06
3.72353e+06
3.71818e+06
3.71283e+06
3.70748e+06
3.70213e+06
3.69678e+06
3.69144e+06
3.6861e+06
3.68076e+06
3.67542e+06
3.67009e+06
3.66475e+06
3.65942e+06
3.65409e+06
3.64876e+06
3.64343e+06
3.63811e+06
3.63279e+06
3.62746e+06
3.62214e+06
3.61682e+06
3.6115e+06
3.60619e+06
3.60087e+06
3.59556e+06
3.59025e+06
3.58493e+06
3.57962e+06
3.57431e+06
3.56901e+06
3.5637e+06
3.55839e+06
3.55309e+06
3.54778e+06
3.54248e+06
3.53717e+06
3.53187e+06
3.52657e+06
3.52127e+06
3.51597e+06
3.51066e+06
3.50536e+06
3.50006e+06
3.49477e+06
3.48947e+06
3.48417e+06
3.47887e+06
3.47357e+06
3.46827e+06
3.46297e+06
3.45767e+06
3.45238e+06
3.44708e+06
3.44178e+06
3.43648e+06
3.43118e+06
3.42588e+06
3.42058e+06
3.41528e+06
3.40998e+06
3.40467e+06
3.39937e+06
3.39407e+06
3.38876e+06
3.38346e+06
3.37815e+06
3.37285e+06
3.36754e+06
3.36223e+06
3.35692e+06
3.35161e+06
3.34629e+06
3.34098e+06
3.33566e+06
3.33035e+06
3.32503e+06
3.31971e+06
3.31439e+06
3.30906e+06
3.30374e+06
3.29841e+06
3.29308e+06
3.28774e+06
3.28241e+06
3.27707e+06
3.27173e+06
3.26639e+06
3.26105e+06
3.2557e+06
3.25035e+06
3.245e+06
3.23964e+06
3.23429e+06
3.22892e+06
3.22356e+06
3.21819e+06
3.21282e+06
3.20745e+06
3.20207e+06
3.19669e+06
3.1913e+06
3.18591e+06
3.18052e+06
3.17513e+06
3.16972e+06
3.16433e+06
3.15892e+06
3.1535e+06
3.14809e+06
3.14266e+06
3.13723e+06
3.1318e+06
3.12636e+06
3.12091e+06
3.11547e+06
3.11001e+06
3.10455e+06
3.09909e+06
3.09361e+06
3.08814e+06
3.08265e+06
3.07716e+06
3.07166e+06
3.06616e+06
3.06066e+06
3.05514e+06
3.04962e+06
3.04409e+06
3.03856e+06
3.03301e+06
3.02745e+06
3.0219e+06
3.01633e+06
3.01076e+06
3.00516e+06
2.99958e+06
2.99397e+06
2.98836e+06
2.98274e+06
2.97711e+06
2.97148e+06
2.96583e+06
2.96017e+06
2.9545e+06
2.94883e+06
2.94314e+06
2.93744e+06
2.93173e+06
2.92601e+06
2.92028e+06
2.91454e+06
2.90879e+06
2.90302e+06
2.89724e+06
2.89145e+06
2.88565e+06
2.87983e+06
2.874e+06
2.86816e+06
2.8623e+06
2.85643e+06
2.85054e+06
2.84464e+06
2.83872e+06
2.83278e+06
2.82683e+06
2.82087e+06
2.81489e+06
2.80889e+06
2.80287e+06
2.79684e+06
2.79078e+06
2.78471e+06
2.77862e+06
2.77251e+06
2.76638e+06
2.76023e+06
2.75406e+06
2.74786e+06
2.74165e+06
2.73541e+06
2.72915e+06
2.72287e+06
2.71656e+06
2.71023e+06
2.70387e+06
2.69749e+06
2.69108e+06
2.68465e+06
2.67819e+06
2.67169e+06
2.66517e+06
2.65862e+06
2.65204e+06
2.64543e+06
2.63879e+06
2.63211e+06
2.6254e+06
2.61865e+06
2.61186e+06
2.60504e+06
2.59819e+06
2.59129e+06
2.58436e+06
2.57738e+06
2.57036e+06
2.5633e+06
2.55619e+06
2.54903e+06
2.54182e+06
2.53457e+06
2.52726e+06
2.51991e+06
2.51249e+06
2.50502e+06
2.49749e+06
2.4899e+06
2.48224e+06
2.47452e+06
2.46673e+06
2.45887e+06
2.45094e+06
2.44293e+06
2.43483e+06
2.42665e+06
2.41837e+06
2.41001e+06
2.40156e+06
2.39302e+06
2.38439e+06
2.37565e+06
2.36678e+06
2.35777e+06
2.34861e+06
2.33929e+06
2.32982e+06
2.32021e+06
2.31045e+06
2.30053e+06
2.29042e+06
2.2801e+06
2.26952e+06
2.25866e+06
2.24751e+06
2.23606e+06
2.22431e+06
2.21224e+06
2.19981e+06
2.18696e+06
2.17366e+06
2.15984e+06
2.14544e+06
2.13041e+06
2.11471e+06
2.09828e+06
2.0811e+06
2.06313e+06
2.04436e+06
2.02478e+06
2.00443e+06
1.98339e+06
1.96181e+06
1.94025e+06
1.91935e+06
1.89942e+06
1.88063e+06
1.86301e+06
1.84657e+06
1.83122e+06
1.81684e+06
1.80331e+06
1.79044e+06
1.77811e+06
1.76614e+06
1.75441e+06
1.74281e+06
1.73127e+06
1.71971e+06
1.70808e+06
1.69629e+06
1.6843e+06
1.67209e+06
1.65966e+06
1.64702e+06
1.63421e+06
1.62123e+06
1.6081e+06
1.59482e+06
1.58143e+06
1.56794e+06
1.55439e+06
1.54081e+06
1.5272e+06
1.51358e+06
1.49995e+06
1.48632e+06
1.47269e+06
1.45905e+06
1.44542e+06
1.4318e+06
1.41817e+06
1.40454e+06
1.39091e+06
1.37727e+06
1.36361e+06
1.34994e+06
1.33625e+06
1.32254e+06
1.30881e+06
1.29505e+06
1.28128e+06
1.26748e+06
1.25366e+06
1.23981e+06
1.22594e+06
1.21204e+06
1.19813e+06
1.18419e+06
1.17024e+06
1.15625e+06
1.14225e+06
1.12823e+06
1.11419e+06
1.10014e+06
1.08607e+06
1.07197e+06
1.05786e+06
1.04373e+06
1.02959e+06
1.01542e+06
1.00125e+06
987055
972856
958610
944377
930099
915870
901518
887254
872854
858636
844196
829879
815407
801029
786721
772230
757928
743314
728852
714331
699881
685758
671487
657281
641735
628441
609167
594660
597166
607483
)
;

boundaryField
{
    sideLeft
    {
        type            symmetryPlane;
    }
    sideRight
    {
        type            myWaveTransmissive;
        phi             phi.air;
        rho             rho.air;
        psi             thermo:psi.air;
        gamma           1.4;
        fieldInf        100000;
        lInf            10;
        value           uniform 605575;
    }
    topbottom
    {
        type            empty;
    }
    frontback
    {
        type            empty;
    }
}


// ************************************************************************* //
