/*--------------------------------*- C++ -*----------------------------------*\
| =========                 |                                                 |
| \\      /  F ield         | OpenFOAM: The Open Source CFD Toolbox           |
|  \\    /   O peration     | Version:  2.4.0                                 |
|   \\  /    A nd           | Web:      www.OpenFOAM.org                      |
|    \\/     M anipulation  |                                                 |
\*---------------------------------------------------------------------------*/
FoamFile
{
    version     2.0;
    format      ascii;
    class       surfaceScalarField;
    location    "0.19";
    object      phi;
}
// * * * * * * * * * * * * * * * * * * * * * * * * * * * * * * * * * * * * * //

dimensions      [0 3 -1 0 0 0 0];

internalField   nonuniform List<scalar> 
999
(
5.41733e-13
-5.23309e-13
-8.11005e-13
-2.84216e-13
-3.74522e-13
-1.70531e-13
1.46002e-13
-9.27273e-13
-1.21733e-12
-1.09728e-12
-1.91561e-12
-2.02197e-12
-1.07308e-12
-3.21426e-13
5.33957e-13
-1.98952e-13
-1.41922e-13
7.10533e-14
1.02102e-12
9.88455e-13
1.30322e-12
5.42543e-13
-1.98952e-13
-6.53699e-13
3.66482e-13
1.41431e-13
-8.52663e-14
3.73172e-13
4.12115e-13
2.29026e-13
-1.23124e-13
-1.42903e-12
-1.75518e-12
-1.62352e-12
-1.44131e-12
-5.24326e-13
5.52904e-13
4.40921e-13
1.34859e-12
3.00248e-12
3.22638e-12
3.1129e-12
2.82532e-12
2.68312e-12
2.92051e-12
1.29523e-12
1.73633e-12
1.67536e-12
1.89934e-12
1.72654e-12
1.90626e-12
1.83488e-12
1.55647e-12
1.25391e-12
1.92578e-12
1.61312e-12
1.01514e-12
2.70715e-12
1.91698e-12
2.23794e-12
1.86935e-12
7.03312e-13
1.23694e-12
1.73019e-12
3.4365e-12
4.54623e-12
3.27215e-12
3.27275e-12
2.53544e-12
1.44403e-12
5.72394e-13
1.09901e-12
2.03401e-12
2.10126e-12
1.82918e-12
1.29122e-12
2.58555e-12
2.07641e-12
4.27456e-13
-4.80296e-13
-1.39307e-13
6.69631e-13
8.52648e-14
-8.52649e-14
-2.06555e-13
-1.42109e-13
1.42112e-14
1.52873e-13
6.11067e-13
4.6864e-13
8.99978e-14
-7.10539e-14
-4.51752e-13
-1.19384e-12
-1.16777e-12
-2.07601e-12
-1.67497e-12
-8.62343e-13
-4.48449e-13
-9.04341e-13
-4.60635e-13
-2.39713e-13
-3.97904e-13
6.59183e-13
7.23993e-13
1.41727e-12
9.96837e-13
8.28791e-13
8.42144e-13
9.84697e-13
1.25616e-12
2.49653e-12
2.84337e-12
2.87958e-12
2.33992e-12
4.03662e-12
3.15696e-12
2.93494e-12
3.42574e-12
5.16751e-12
4.16801e-12
4.33815e-12
6.05675e-12
6.62702e-12
6.51398e-12
5.48029e-12
6.93533e-12
7.48424e-12
8.27074e-12
6.97848e-12
6.42559e-12
5.50622e-12
5.92706e-12
5.89254e-12
4.97118e-12
3.17276e-12
3.53245e-12
2.93544e-12
3.04325e-12
3.14293e-12
2.34484e-12
1.90294e-12
2.59888e-12
2.54842e-12
1.98792e-12
3.24347e-12
4.04536e-12
2.05632e-12
2.05222e-12
2.33085e-12
2.45614e-12
2.47269e-12
2.49041e-12
2.42446e-12
2.30284e-12
1.28287e-12
1.2214e-12
6.24635e-20
-3.55271e-13
-8.60943e-13
-1.40437e-12
-1.87061e-12
-2.41544e-12
-2.25367e-12
-1.72845e-12
-2.05504e-12
-2.75318e-12
-3.73727e-12
-3.29933e-12
-3.59594e-12
-3.6879e-12
-3.62623e-12
-3.4662e-12
-4.18008e-12
-4.2542e-12
-3.62521e-12
-3.47316e-12
-1.20824e-12
-2.62589e-13
1.40491e-13
1.03194e-12
1.87212e-12
2.62582e-12
1.92685e-12
2.91946e-12
2.81642e-12
3.51175e-12
2.97934e-12
2.21853e-12
2.40824e-12
1.85732e-12
1.4968e-12
1.64622e-12
8.44626e-13
1.3085e-12
1.57059e-12
1.05812e-12
1.29078e-12
1.01156e-12
7.95941e-13
1.60384e-12
8.20864e-14
8.72989e-13
2.62528e-13
4.26329e-14
4.99714e-13
2.10174e-12
1.41907e-12
3.64613e-13
2.84217e-13
-5.15332e-13
-1.17614e-12
-7.85272e-13
-1.30682e-12
-6.45862e-13
-9.66315e-13
-4.3181e-13
1.7053e-13
-1.07841e-12
-1.27807e-12
-7.19456e-13
-1.63873e-12
-6.3372e-13
-4.12114e-13
-6.56227e-13
-5.87494e-13
4.72905e-13
1.84445e-12
1.96267e-12
4.8292e-13
1.50554e-12
2.32183e-12
1.81521e-12
1.43739e-12
9.76674e-13
1.47777e-12
1.23623e-12
1.93881e-12
1.34619e-12
1.17269e-12
1.85332e-12
2.55841e-12
2.38735e-12
1.86445e-12
1.59459e-12
1.68421e-12
1.10217e-12
5.75825e-13
-7.11445e-13
-1.6302e-12
-6.72564e-13
-5.68448e-14
5.1955e-13
-2.31664e-13
5.25802e-13
1.91806e-12
1.40508e-12
1.7681e-12
7.65227e-13
1.8273e-12
2.06237e-12
1.97218e-12
7.66079e-13
4.23078e-13
2.04015e-14
-6.67909e-13
-1.1752e-12
-1.13687e-13
-2.84217e-13
-4.40537e-13
-7.6923e-13
-1.9575e-12
-1.82474e-12
-2.34224e-12
-2.09994e-12
-1.95746e-12
-9.90451e-13
-1.32915e-12
-1.4477e-12
-9.75793e-13
-1.77154e-13
1.22277e-12
1.62779e-12
6.94875e-13
5.13278e-14
2.27375e-13
-1.73096e-12
-7.10544e-13
-1.12691e-13
4.63856e-13
1.73803e-12
1.21464e-12
4.21071e-13
6.67734e-20
5.70223e-13
1.87064e-12
2.66584e-12
4.36331e-12
3.75063e-12
4.00517e-12
4.30951e-12
4.24583e-12
4.9489e-12
5.84607e-12
6.37116e-12
7.9147e-12
8.04629e-12
7.83004e-12
8.80222e-12
1.10372e-11
1.2349e-11
1.32364e-11
1.72199e-11
2.054e-11
2.55405e-11
3.06661e-11
4.00684e-11
5.28406e-11
7.32499e-11
1.04195e-10
1.49893e-10
2.15706e-10
3.13023e-10
4.57824e-10
6.69556e-10
9.74954e-10
1.41927e-09
2.05988e-09
2.98442e-09
4.3127e-09
6.217e-09
8.93833e-09
1.28188e-08
1.8335e-08
2.61596e-08
3.7219e-08
5.28138e-08
7.47429e-08
1.05489e-07
1.48478e-07
2.08414e-07
2.91739e-07
4.07249e-07
5.66917e-07
7.86981e-07
1.08941e-06
1.50381e-06
2.06997e-06
2.84119e-06
3.88862e-06
5.30694e-06
7.22171e-06
9.79892e-06
1.32572e-05
1.78837e-05
2.4054e-05
3.22578e-05
4.31317e-05
5.74996e-05
7.64249e-05
0.000101274
0.000133799
0.000176234
0.000231422
0.000302964
0.000395405
0.00051446
0.000667289
0.000862825
0.00111217
0.00142908
0.0018305
0.00233724
0.00297477
0.0037741
0.00477283
0.00601641
0.00755944
0.00946733
0.011818
0.014704
0.0182345
0.022538
0.0277647
0.0340897
0.0417156
0.0508762
0.0618398
0.0749125
0.0904415
0.108819
0.130487
0.155936
0.185712
0.22042
0.26072
0.307336
0.361049
0.422702
0.493198
0.573494
0.664604
0.767587
0.883548
1.01363
1.15899
1.32082
1.50033
1.6987
1.91711
2.15673
2.41867
2.70402
3.01378
3.34891
3.71028
4.09866
4.51474
4.9591
5.43221
5.93445
6.46606
7.02717
7.6178
8.23787
8.88719
9.56543
10.2722
11.007
11.7693
12.5584
13.3736
14.2141
15.079
15.9675
16.8786
17.8115
18.765
19.7383
20.7303
21.74
22.7665
23.8087
24.8657
25.9366
27.0203
28.1161
29.223
30.3402
31.4668
32.6022
33.7455
34.8961
36.0533
37.2164
38.3849
39.5582
40.7358
41.9171
43.1017
44.2893
45.4793
46.6714
47.8654
49.0608
50.2575
51.455
52.6533
53.8521
55.0512
56.2504
57.4496
58.6487
59.8475
61.0459
62.2439
63.4413
64.6381
65.8342
67.0296
68.2243
69.4181
70.6111
71.8033
72.9946
74.1851
75.3747
76.5635
77.7514
78.9384
80.1246
81.31
82.4945
83.6783
84.8612
86.0434
87.2249
88.4056
89.5856
90.765
91.9436
93.1217
94.2991
95.4759
96.6521
97.8278
99.003
100.178
101.352
102.526
103.699
104.872
106.044
107.216
108.388
109.559
110.73
111.901
113.072
114.242
115.412
116.581
117.751
118.92
120.09
121.259
122.427
123.596
124.765
125.933
127.102
128.27
129.438
130.606
131.774
132.943
134.111
135.279
136.447
137.615
138.783
139.951
141.119
142.288
143.456
144.624
145.793
146.961
148.13
149.299
150.467
151.636
152.805
153.974
155.144
156.313
157.483
158.653
159.822
160.993
162.163
163.333
164.504
165.675
166.846
168.017
169.189
170.36
171.532
172.705
173.877
175.05
176.223
177.397
178.57
179.744
180.919
182.093
183.268
184.444
185.62
186.796
187.972
189.149
190.327
191.505
192.683
193.862
195.041
196.221
197.401
198.581
199.763
200.944
202.127
203.309
204.493
205.677
206.861
208.046
209.232
210.418
211.605
212.793
213.981
215.17
216.36
217.55
218.741
219.933
221.125
222.318
223.512
224.707
225.902
227.098
228.295
229.493
230.691
231.89
233.09
234.291
235.493
236.696
237.899
239.104
240.309
241.515
242.722
243.93
245.139
246.349
247.56
248.771
249.984
251.198
252.412
253.628
254.845
256.063
257.281
258.501
259.722
260.944
262.167
263.391
264.617
265.843
267.07
268.299
269.529
270.76
271.992
273.226
274.46
275.696
276.934
278.172
279.412
280.653
281.895
283.139
284.384
285.63
286.878
288.127
289.377
290.629
291.883
293.137
294.394
295.651
296.911
298.171
299.433
300.697
301.963
303.229
304.498
305.768
307.04
308.313
309.588
310.865
312.143
313.423
314.705
315.989
317.274
318.561
319.85
321.141
322.433
323.728
325.024
326.322
327.622
328.925
330.229
331.535
332.843
334.153
335.465
336.779
338.095
339.414
340.734
342.057
343.382
344.709
346.038
347.37
348.704
350.04
351.379
352.72
354.063
355.409
356.757
358.108
359.461
360.817
362.175
363.536
364.899
366.265
367.634
369.006
370.38
371.757
373.137
374.52
375.906
377.294
378.686
380.081
381.478
382.879
384.283
385.69
387.1
388.513
389.929
391.348
392.769
394.194
395.626
397.06
398.497
399.937
401.381
402.829
404.281
405.735
407.195
408.657
410.124
411.595
413.07
414.549
416.032
417.519
419.01
420.504
422.003
423.506
425.015
426.528
428.046
429.569
431.096
432.626
434.164
435.706
437.252
438.803
440.36
441.922
443.489
445.061
446.639
448.223
449.812
451.406
453.007
454.613
456.225
457.843
459.467
461.097
462.734
464.377
466.027
467.683
469.346
471.016
472.694
474.378
476.069
477.768
479.475
481.188
482.91
484.64
486.378
488.124
489.878
491.64
493.412
495.192
496.981
498.779
500.587
502.404
504.231
506.067
507.914
509.771
511.639
513.517
515.406
517.306
519.218
521.141
523.076
525.023
526.982
528.954
530.94
532.937
534.95
536.975
539.015
541.069
543.139
545.223
547.324
549.44
551.573
553.723
555.89
558.074
560.277
562.498
564.739
566.999
569.281
571.583
573.908
576.254
578.624
581.017
583.435
585.878
588.349
590.846
593.373
595.927
598.512
601.127
603.777
606.461
609.184
611.943
614.743
617.579
620.455
623.37
626.329
629.336
632.402
635.527
638.721
641.976
645.298
648.678
652.128
655.645
659.252
662.952
666.771
670.704
674.769
678.953
683.277
687.737
692.37
697.179
702.214
707.476
713.021
718.844
725.008
731.502
738.395
745.685
753.397
761.563
770.163
779.206
786.537
793.852
800.941
807.669
814.011
819.902
825.375
830.423
835.113
839.471
843.573
847.466
851.207
854.858
858.432
861.997
865.539
869.141
872.766
876.502
880.279
884.175
888.101
892.133
896.182
900.328
904.477
908.704
912.911
917.17
921.39
925.644
929.851
934.086
938.266
942.472
946.618
950.791
954.902
959.044
963.124
967.24
971.293
975.39
979.423
983.508
987.527
991.602
995.606
999.671
1003.66
1007.72
1011.71
1015.76
1019.73
1023.77
1027.73
1031.77
1035.71
1039.74
1043.66
1047.68
1051.58
1055.58
1059.46
1063.46
1067.32
1071.3
1075.13
1079.1
1082.9
1086.86
1090.64
1094.59
1098.32
1102.26
1105.99
1109.95
1113.58
1117.49
1121.12
1125.14
1128.74
1132.63
1136.07
1139.95
1143.54
1147.54
1151.22
1155.12
1158.21
1161.48
1164.46
1168.66
1171.85
1182
1186.14
1178.76
1176.88
)
;

boundaryField
{
    sideLeft
    {
        type            symmetryPlane;
        value           uniform 0;
    }
    sideRight
    {
        type            calculated;
        value           uniform 1175.77;
    }
    topbottom
    {
        type            empty;
        value           nonuniform 0();
    }
    frontback
    {
        type            empty;
        value           nonuniform 0();
    }
}


// ************************************************************************* //
