/*--------------------------------*- C++ -*----------------------------------*\
| =========                 |                                                 |
| \\      /  F ield         | OpenFOAM: The Open Source CFD Toolbox           |
|  \\    /   O peration     | Version:  2.4.0                                 |
|   \\  /    A nd           | Web:      www.OpenFOAM.org                      |
|    \\/     M anipulation  |                                                 |
\*---------------------------------------------------------------------------*/
FoamFile
{
    version     2.0;
    format      ascii;
    class       surfaceScalarField;
    location    "0.19";
    object      phi.water;
}
// * * * * * * * * * * * * * * * * * * * * * * * * * * * * * * * * * * * * * //

dimensions      [0 3 -1 0 0 0 0];

internalField   nonuniform List<scalar> 
999
(
2.57516e-13
-6.93839e-13
-5.26788e-13
5.68441e-14
-5.45053e-13
-5.68443e-14
1.46002e-13
-1.0978e-12
-1.27418e-12
-1.32465e-12
-1.80192e-12
-2.07882e-12
-1.24361e-12
-1.50896e-13
6.47644e-13
-8.5265e-14
-2.82355e-14
-4.26335e-14
9.64175e-13
9.31612e-13
1.18954e-12
8.2676e-13
-4.26326e-13
-8.52646e-14
-8.82652e-14
2.77446e-14
-8.52663e-14
8.2792e-13
1.27898e-13
-5.5191e-14
4.74067e-14
-1.37219e-12
-1.86887e-12
-1.90774e-12
-8.16032e-13
-5.81169e-13
3.2553e-13
7.25138e-13
1.23491e-12
3.17301e-12
2.999e-12
3.1129e-12
2.76847e-12
2.62628e-12
3.0342e-12
1.1247e-12
1.85002e-12
1.56168e-12
2.06987e-12
1.89707e-12
1.67889e-12
1.89172e-12
1.727e-12
1.02654e-12
1.86894e-12
1.27206e-12
1.3562e-12
2.76399e-12
1.74645e-12
2.12426e-12
1.9262e-12
1.15806e-12
1.00957e-12
1.6165e-12
3.83441e-12
4.65991e-12
2.98793e-12
3.27275e-12
2.36491e-12
1.61456e-12
4.01864e-13
1.15585e-12
1.92033e-12
2.15811e-12
2.17024e-12
1.06385e-12
2.35818e-12
1.90588e-12
7.11673e-13
-3.66609e-13
2.01753e-13
3.85414e-13
3.69482e-13
-1.98952e-13
-4.90772e-13
-1.42109e-13
1.42112e-14
3.80247e-13
9.94766e-14
6.96013e-13
-8.05325e-14
4.26329e-14
-3.38065e-13
-1.30753e-12
-1.22461e-12
-2.01917e-12
-1.4476e-12
-1.08972e-12
-8.46353e-13
-6.76967e-13
-8.01696e-13
3.85564e-13
-2.27374e-13
8.29713e-13
6.10306e-13
1.24674e-12
6.55777e-13
1.11301e-12
8.98988e-13
9.84697e-13
1.02878e-12
2.78075e-12
2.78653e-12
2.6522e-12
2.51045e-12
4.43452e-12
2.98643e-12
3.10547e-12
3.42574e-12
5.28119e-12
3.94064e-12
4.62236e-12
5.48832e-12
6.74071e-12
6.51398e-12
6.04873e-12
6.48058e-12
7.99583e-12
7.92967e-12
7.09216e-12
6.36875e-12
5.16516e-12
6.15444e-12
5.72201e-12
4.68696e-12
3.34329e-12
3.58929e-12
3.04912e-12
2.87272e-12
3.25662e-12
2.17431e-12
2.13031e-12
2.4852e-12
2.2642e-12
2.27214e-12
3.24347e-12
3.87483e-12
2.05632e-12
2.33643e-12
2.10347e-12
2.45614e-12
2.52953e-12
2.43356e-12
2.65183e-12
2.41653e-12
1.0555e-12
1.16456e-12
5.68435e-14
-4.68958e-13
-8.041e-13
-1.34752e-12
-1.87061e-12
-2.69966e-12
-1.96946e-12
-1.72845e-12
-1.77082e-12
-2.86687e-12
-3.68042e-12
-3.75408e-12
-3.53909e-12
-3.46053e-12
-3.4557e-12
-3.52304e-12
-4.23692e-12
-4.14051e-12
-3.62521e-12
-3.70054e-12
-1.66299e-12
-3.52156e-14
3.11021e-13
1.14562e-12
1.81528e-12
3.02373e-12
2.04054e-12
2.80577e-12
2.70273e-12
3.45491e-12
2.12669e-12
2.67327e-12
2.63562e-12
1.85732e-12
1.55365e-12
1.58937e-12
9.0147e-13
1.42219e-12
1.45691e-12
1.17181e-12
1.06341e-12
1.01156e-12
9.09628e-13
1.0354e-12
4.7999e-13
7.59302e-13
3.76215e-13
9.94763e-14
8.97618e-13
1.70383e-12
1.47591e-12
3.07769e-13
2.84217e-13
-4.01645e-13
-1.28983e-12
-5.01055e-13
-1.47735e-12
-6.45862e-13
-1.02316e-12
-1.47593e-13
-3.97904e-13
-1.1921e-12
-1.10753e-12
-1.00367e-12
-1.41136e-12
-8.0425e-13
-1.8474e-13
-7.69913e-13
-3.60121e-13
4.16062e-13
1.95814e-12
1.50793e-12
5.39763e-13
1.67607e-12
2.32183e-12
2.21312e-12
1.03948e-12
9.76674e-13
1.36408e-12
1.80466e-12
1.6546e-12
7.20912e-13
1.57059e-12
1.91016e-12
2.50157e-12
2.21682e-12
2.37604e-12
1.25353e-12
1.91158e-12
1.04533e-12
6.89512e-13
-7.11445e-13
-1.68704e-12
-6.72564e-13
-1.70532e-13
2.92176e-13
-6.11334e-14
2.41585e-13
2.20227e-12
1.1777e-12
2.05231e-12
7.08383e-13
1.99783e-12
2.00553e-12
1.80165e-12
1.22083e-12
4.23078e-13
-9.32853e-14
-6.11065e-13
-1.1752e-12
-2.84217e-13
-3.97904e-13
-2.13163e-13
-8.26073e-13
-2.29856e-12
-1.59737e-12
-2.05802e-12
-2.21363e-12
-2.24167e-12
-9.33608e-13
-9.8809e-13
-9.92953e-13
-1.08948e-12
-3.47684e-13
1.10908e-12
1.57095e-12
4.67502e-13
5.62919e-13
-5.1159e-13
-1.21937e-12
-5.96857e-13
-5.58477e-14
4.07013e-13
1.68118e-12
1.38517e-12
4.21071e-13
-1.7053e-13
4.56536e-13
1.8138e-12
2.49531e-12
4.59069e-12
3.86432e-12
4.1757e-12
4.19582e-12
3.96162e-12
5.06258e-12
5.78923e-12
6.31432e-12
8.02839e-12
8.10313e-12
7.71635e-12
9.02959e-12
1.08667e-11
1.22353e-11
1.3407e-11
1.65946e-11
2.07106e-11
2.56542e-11
3.06661e-11
4.01821e-11
5.22721e-11
7.29088e-11
1.03967e-10
1.49723e-10
2.15137e-10
3.12852e-10
4.56005e-10
6.68249e-10
9.72226e-10
1.41586e-09
2.05505e-09
2.97731e-09
4.30286e-09
6.20273e-09
8.91844e-09
1.27903e-08
1.82956e-08
2.61033e-08
3.71406e-08
5.27044e-08
7.45901e-08
1.05277e-07
1.48184e-07
2.08009e-07
2.91183e-07
4.06485e-07
5.65872e-07
7.85555e-07
1.08747e-06
1.50118e-06
2.06642e-06
2.83641e-06
3.8822e-06
5.29834e-06
7.21024e-06
9.78367e-06
1.3237e-05
1.7857e-05
2.40188e-05
3.22116e-05
4.30712e-05
5.74207e-05
7.63222e-05
0.000101141
0.000133627
0.000176013
0.000231139
0.000302602
0.000394943
0.000513874
0.000666548
0.000861891
0.001111
0.00142761
0.00182867
0.00233497
0.00297196
0.00377063
0.00476858
0.0060112
0.0075531
0.00945963
0.0118087
0.0146928
0.0182211
0.022522
0.0277456
0.034067
0.0416888
0.0508448
0.0618031
0.0748696
0.0903919
0.108762
0.130421
0.15586
0.185626
0.220322
0.26061
0.307212
0.36091
0.422548
0.493027
0.573306
0.664397
0.767362
0.883303
1.01336
1.1587
1.32052
1.5
1.69835
1.91675
2.15635
2.41827
2.7036
3.01335
3.34847
3.70983
4.0982
4.51427
4.95863
5.43175
5.93398
6.46559
7.02671
7.61735
8.23743
8.88676
9.56502
10.2718
11.0067
11.769
12.5581
13.3733
14.2138
15.0787
15.9672
16.8784
17.8113
18.7648
19.7381
20.7301
21.7399
22.7664
23.8086
24.8656
25.9365
27.0203
28.1161
29.223
30.3402
31.4668
32.6022
33.7456
34.8962
36.0534
37.2165
38.385
39.5583
40.7359
41.9172
43.1019
44.2894
45.4794
46.6716
47.8655
49.061
50.2576
51.4552
52.6535
53.8522
55.0513
56.2506
57.4498
58.6489
59.8477
61.0461
62.244
63.4414
64.6382
65.8344
67.0298
68.2244
69.4182
70.6113
71.8034
72.9948
74.1852
75.3749
76.5636
77.7515
78.9385
80.1247
81.3101
82.4946
83.6784
84.8614
86.0436
87.225
88.4057
89.5857
90.7651
91.9437
93.1218
94.2992
95.476
96.6522
97.8279
99.0031
100.178
101.352
102.526
103.699
104.872
106.044
107.216
108.388
109.559
110.73
111.901
113.072
114.242
115.412
116.582
117.751
118.92
120.09
121.259
122.427
123.596
124.765
125.933
127.102
128.27
129.438
130.606
131.775
132.943
134.111
135.279
136.447
137.615
138.783
139.951
141.12
142.288
143.456
144.624
145.793
146.961
148.13
149.299
150.467
151.636
152.805
153.975
155.144
156.313
157.483
158.653
159.822
160.993
162.163
163.333
164.504
165.675
166.846
168.017
169.189
170.36
171.532
172.705
173.877
175.05
176.223
177.397
178.57
179.744
180.919
182.093
183.268
184.444
185.62
186.796
187.972
189.149
190.327
191.505
192.683
193.862
195.041
196.221
197.401
198.581
199.763
200.944
202.127
203.309
204.493
205.677
206.861
208.046
209.232
210.418
211.605
212.793
213.981
215.17
216.36
217.55
218.741
219.933
221.125
222.318
223.512
224.707
225.902
227.098
228.295
229.493
230.691
231.89
233.091
234.291
235.493
236.696
237.899
239.104
240.309
241.515
242.722
243.93
245.139
246.349
247.56
248.771
249.984
251.198
252.412
253.628
254.845
256.063
257.281
258.501
259.722
260.944
262.167
263.391
264.617
265.843
267.071
268.299
269.529
270.76
271.992
273.226
274.461
275.696
276.934
278.172
279.412
280.653
281.895
283.139
284.384
285.63
286.878
288.127
289.377
290.629
291.883
293.137
294.394
295.651
296.911
298.171
299.433
300.697
301.963
303.23
304.498
305.768
307.04
308.313
309.588
310.865
312.143
313.423
314.705
315.989
317.274
318.561
319.85
321.141
322.433
323.728
325.024
326.322
327.622
328.925
330.229
331.535
332.843
334.153
335.465
336.779
338.095
339.414
340.734
342.057
343.382
344.709
346.038
347.37
348.704
350.04
351.379
352.72
354.063
355.409
356.757
358.108
359.461
360.817
362.175
363.536
364.899
366.266
367.634
369.006
370.38
371.757
373.138
374.52
375.906
377.294
378.686
380.08
381.478
382.879
384.283
385.69
387.1
388.513
389.929
391.348
392.769
394.194
395.626
397.06
398.497
399.937
401.381
402.829
404.281
405.735
407.195
408.657
410.124
411.595
413.07
414.549
416.032
417.519
419.01
420.504
422.003
423.506
425.015
426.528
428.046
429.569
431.096
432.626
434.164
435.706
437.252
438.803
440.36
441.922
443.489
445.061
446.639
448.223
449.812
451.406
453.007
454.613
456.225
457.843
459.467
461.097
462.734
464.377
466.027
467.683
469.346
471.016
472.694
474.378
476.069
477.768
479.475
481.188
482.91
484.64
486.378
488.124
489.878
491.64
493.412
495.192
496.981
498.779
500.587
502.404
504.231
506.067
507.914
509.771
511.639
513.517
515.406
517.306
519.218
521.141
523.076
525.023
526.982
528.954
530.939
532.938
534.949
536.975
539.015
541.069
543.139
545.223
547.324
549.44
551.573
553.723
555.89
558.074
560.277
562.498
564.739
566.999
569.281
571.583
573.908
576.254
578.624
581.017
583.435
585.878
588.349
590.846
593.373
595.927
598.513
601.127
603.778
606.461
609.184
611.943
614.743
617.579
620.455
623.37
626.33
629.336
632.403
635.527
638.722
641.975
645.299
648.677
652.129
655.644
659.253
662.951
666.772
670.703
674.77
678.952
683.278
687.736
692.37
697.178
702.215
707.475
713.022
718.844
725.009
731.502
738.395
745.685
753.397
761.563
770.163
779.207
786.535
793.852
800.941
807.669
814.012
819.903
825.375
830.423
835.113
839.472
843.572
847.467
851.207
854.858
858.432
861.997
865.54
869.141
872.766
876.502
880.279
884.175
888.101
892.132
896.182
900.328
904.477
908.704
912.911
917.17
921.39
925.644
929.851
934.086
938.266
942.472
946.618
950.791
954.902
959.044
963.123
967.241
971.292
975.391
979.422
983.509
987.526
991.603
995.605
999.672
1003.66
1007.72
1011.71
1015.76
1019.73
1023.77
1027.73
1031.77
1035.71
1039.74
1043.66
1047.68
1051.57
1055.58
1059.46
1063.46
1067.32
1071.3
1075.13
1079.09
1082.9
1086.86
1090.65
1094.59
1098.32
1102.25
1106
1109.93
1113.6
1117.47
1121.14
1125.12
1128.73
1132.65
1136.02
1140
1143.46
1147.58
1151.19
1155.1
1158.22
1161.46
1164.46
1168.43
1172.27
1181.19
1186.66
1179.03
1177
)
;

boundaryField
{
    sideLeft
    {
        type            symmetryPlane;
        value           uniform 0;
    }
    sideRight
    {
        type            calculated;
        value           uniform 6527.28;
    }
    topbottom
    {
        type            empty;
        value           nonuniform 0();
    }
    frontback
    {
        type            empty;
        value           nonuniform 0();
    }
}


// ************************************************************************* //
