/*--------------------------------*- C++ -*----------------------------------*\
| =========                 |                                                 |
| \\      /  F ield         | OpenFOAM: The Open Source CFD Toolbox           |
|  \\    /   O peration     | Version:  2.4.0                                 |
|   \\  /    A nd           | Web:      www.OpenFOAM.org                      |
|    \\/     M anipulation  |                                                 |
\*---------------------------------------------------------------------------*/
FoamFile
{
    version     2.0;
    format      ascii;
    class       volScalarField;
    location    "0.19";
    object      pMean;
}
// * * * * * * * * * * * * * * * * * * * * * * * * * * * * * * * * * * * * * //

dimensions      [1 -1 -2 0 0 0 0];

internalField   nonuniform List<scalar> 
1000
(
5e+06
5e+06
5e+06
5e+06
5e+06
5e+06
5e+06
5e+06
5e+06
5e+06
5e+06
5e+06
5e+06
5e+06
5e+06
5e+06
5e+06
5e+06
5e+06
5e+06
5e+06
5e+06
5e+06
5e+06
5e+06
5e+06
5e+06
5e+06
5e+06
5e+06
5e+06
5e+06
5e+06
5e+06
5e+06
5e+06
5e+06
5e+06
5e+06
5e+06
5e+06
5e+06
5e+06
5e+06
5e+06
5e+06
5e+06
5e+06
5e+06
5e+06
5e+06
5e+06
5e+06
5e+06
5e+06
5e+06
5e+06
5e+06
5e+06
5e+06
5e+06
5e+06
5e+06
5e+06
5e+06
5e+06
5e+06
5e+06
5e+06
5e+06
5e+06
5e+06
5e+06
5e+06
5e+06
5e+06
5e+06
5e+06
5e+06
5e+06
5e+06
5e+06
5e+06
5e+06
5e+06
5e+06
5e+06
5e+06
5e+06
5e+06
5e+06
5e+06
5e+06
5e+06
5e+06
5e+06
5e+06
5e+06
5e+06
5e+06
5e+06
5e+06
5e+06
5e+06
5e+06
5e+06
5e+06
5e+06
5e+06
5e+06
5e+06
5e+06
5e+06
5e+06
5e+06
5e+06
5e+06
5e+06
5e+06
5e+06
5e+06
5e+06
5e+06
5e+06
5e+06
5e+06
5e+06
5e+06
5e+06
5e+06
5e+06
5e+06
5e+06
5e+06
5e+06
5e+06
5e+06
5e+06
5e+06
5e+06
5e+06
5e+06
5e+06
5e+06
5e+06
5e+06
5e+06
5e+06
5e+06
5e+06
5e+06
5e+06
5e+06
5e+06
5e+06
5e+06
5e+06
5e+06
5e+06
5e+06
5e+06
5e+06
5e+06
5e+06
5e+06
5e+06
5e+06
5e+06
5e+06
5e+06
5e+06
5e+06
5e+06
5e+06
5e+06
5e+06
5e+06
5e+06
5e+06
5e+06
5e+06
5e+06
5e+06
5e+06
5e+06
5e+06
5e+06
5e+06
5e+06
5e+06
5e+06
5e+06
5e+06
5e+06
5e+06
5e+06
5e+06
5e+06
5e+06
5e+06
5e+06
5e+06
5e+06
5e+06
5e+06
5e+06
5e+06
5e+06
5e+06
5e+06
5e+06
5e+06
5e+06
5e+06
5e+06
5e+06
5e+06
5e+06
5e+06
5e+06
5e+06
5e+06
5e+06
5e+06
5e+06
5e+06
5e+06
5e+06
5e+06
5e+06
5e+06
5e+06
5e+06
5e+06
5e+06
5e+06
5e+06
5e+06
5e+06
5e+06
5e+06
5e+06
5e+06
5e+06
5e+06
5e+06
5e+06
5e+06
5e+06
5e+06
5e+06
5e+06
5e+06
5e+06
5e+06
5e+06
5e+06
5e+06
5e+06
5e+06
5e+06
5e+06
5e+06
5e+06
5e+06
5e+06
5e+06
5e+06
5e+06
5e+06
5e+06
5e+06
5e+06
5e+06
5e+06
5e+06
5e+06
5e+06
5e+06
5e+06
5e+06
5e+06
5e+06
5e+06
5e+06
5e+06
5e+06
5e+06
5e+06
5e+06
5e+06
5e+06
5e+06
5e+06
5e+06
5e+06
5e+06
5e+06
5e+06
5e+06
5e+06
5e+06
5e+06
5e+06
5e+06
5e+06
5e+06
5e+06
5e+06
5e+06
5e+06
5e+06
5e+06
5e+06
5e+06
5e+06
5e+06
5e+06
5e+06
5e+06
5e+06
5e+06
5e+06
5e+06
5e+06
5e+06
5e+06
5e+06
5e+06
5e+06
5e+06
5e+06
5e+06
5e+06
5e+06
5e+06
5e+06
5e+06
5e+06
5e+06
5e+06
5e+06
5e+06
5e+06
5e+06
5e+06
5e+06
5e+06
5e+06
5e+06
5e+06
5e+06
5e+06
5e+06
5e+06
5e+06
5e+06
5e+06
5e+06
5e+06
5e+06
5e+06
5e+06
5e+06
5e+06
5e+06
5e+06
5e+06
5e+06
5e+06
5e+06
5e+06
5e+06
5e+06
5e+06
5e+06
5e+06
5e+06
5e+06
5e+06
5e+06
5e+06
5e+06
5e+06
5e+06
5e+06
5e+06
5e+06
5e+06
5e+06
5e+06
4.99999e+06
4.99999e+06
4.99999e+06
4.99999e+06
4.99999e+06
4.99998e+06
4.99998e+06
4.99998e+06
4.99997e+06
4.99997e+06
4.99996e+06
4.99996e+06
4.99995e+06
4.99994e+06
4.99993e+06
4.99992e+06
4.99991e+06
4.99989e+06
4.99988e+06
4.99986e+06
4.99984e+06
4.99981e+06
4.99979e+06
4.99976e+06
4.99973e+06
4.99969e+06
4.99965e+06
4.99961e+06
4.99956e+06
4.99951e+06
4.99945e+06
4.99939e+06
4.99932e+06
4.99924e+06
4.99916e+06
4.99908e+06
4.99899e+06
4.99889e+06
4.99878e+06
4.99866e+06
4.99854e+06
4.99841e+06
4.99828e+06
4.99813e+06
4.99798e+06
4.99781e+06
4.99764e+06
4.99746e+06
4.99727e+06
4.99706e+06
4.99685e+06
4.99663e+06
4.9964e+06
4.99616e+06
4.99591e+06
4.99565e+06
4.99538e+06
4.99509e+06
4.9948e+06
4.99449e+06
4.99418e+06
4.99385e+06
4.99351e+06
4.99316e+06
4.9928e+06
4.99243e+06
4.99205e+06
4.99165e+06
4.99124e+06
4.99083e+06
4.9904e+06
4.98996e+06
4.9895e+06
4.98904e+06
4.98856e+06
4.98808e+06
4.98758e+06
4.98707e+06
4.98654e+06
4.98601e+06
4.98546e+06
4.98491e+06
4.98434e+06
4.98376e+06
4.98316e+06
4.98256e+06
4.98195e+06
4.98132e+06
4.98068e+06
4.98003e+06
4.97937e+06
4.97869e+06
4.97801e+06
4.97731e+06
4.9766e+06
4.97588e+06
4.97515e+06
4.97441e+06
4.97365e+06
4.97289e+06
4.97211e+06
4.97132e+06
4.97052e+06
4.96971e+06
4.96888e+06
4.96805e+06
4.9672e+06
4.96634e+06
4.96547e+06
4.96459e+06
4.9637e+06
4.96279e+06
4.96188e+06
4.96095e+06
4.96001e+06
4.95906e+06
4.9581e+06
4.95713e+06
4.95614e+06
4.95515e+06
4.95414e+06
4.95312e+06
4.95209e+06
4.95105e+06
4.94999e+06
4.94893e+06
4.94785e+06
4.94676e+06
4.94567e+06
4.94455e+06
4.94343e+06
4.9423e+06
4.94115e+06
4.94e+06
4.93883e+06
4.93765e+06
4.93646e+06
4.93526e+06
4.93404e+06
4.93282e+06
4.93158e+06
4.93033e+06
4.92907e+06
4.9278e+06
4.92652e+06
4.92523e+06
4.92392e+06
4.9226e+06
4.92128e+06
4.91994e+06
4.91858e+06
4.91722e+06
4.91585e+06
4.91446e+06
4.91306e+06
4.91166e+06
4.91024e+06
4.9088e+06
4.90736e+06
4.90591e+06
4.90444e+06
4.90296e+06
4.90147e+06
4.89997e+06
4.89846e+06
4.89693e+06
4.8954e+06
4.89385e+06
4.89229e+06
4.89072e+06
4.88914e+06
4.88755e+06
4.88594e+06
4.88433e+06
4.8827e+06
4.88106e+06
4.87941e+06
4.87774e+06
4.87607e+06
4.87438e+06
4.87269e+06
4.87098e+06
4.86925e+06
4.86752e+06
4.86578e+06
4.86402e+06
4.86225e+06
4.86047e+06
4.85868e+06
4.85688e+06
4.85507e+06
4.85324e+06
4.8514e+06
4.84955e+06
4.84769e+06
4.84582e+06
4.84393e+06
4.84203e+06
4.84013e+06
4.83821e+06
4.83627e+06
4.83433e+06
4.83237e+06
4.83041e+06
4.82843e+06
4.82644e+06
4.82443e+06
4.82242e+06
4.82039e+06
4.81835e+06
4.8163e+06
4.81424e+06
4.81216e+06
4.81008e+06
4.80798e+06
4.80587e+06
4.80375e+06
4.80161e+06
4.79946e+06
4.79731e+06
4.79514e+06
4.79295e+06
4.79076e+06
4.78855e+06
4.78633e+06
4.7841e+06
4.78186e+06
4.7796e+06
4.77734e+06
4.77506e+06
4.77277e+06
4.77046e+06
4.76815e+06
4.76582e+06
4.76348e+06
4.76112e+06
4.75876e+06
4.75638e+06
4.75399e+06
4.75159e+06
4.74918e+06
4.74675e+06
4.74431e+06
4.74186e+06
4.7394e+06
4.73692e+06
4.73443e+06
4.73193e+06
4.72942e+06
4.72689e+06
4.72435e+06
4.7218e+06
4.71924e+06
4.71666e+06
4.71407e+06
4.71147e+06
4.70886e+06
4.70623e+06
4.70359e+06
4.70094e+06
4.69827e+06
4.69559e+06
4.6929e+06
4.6902e+06
4.68749e+06
4.68476e+06
4.68202e+06
4.67926e+06
4.67649e+06
4.67371e+06
4.67092e+06
4.66811e+06
4.6653e+06
4.66246e+06
4.65962e+06
4.65676e+06
4.65389e+06
4.651e+06
4.64811e+06
4.6452e+06
4.64227e+06
4.63934e+06
4.63638e+06
4.63342e+06
4.63044e+06
4.62745e+06
4.62445e+06
4.62143e+06
4.6184e+06
4.61536e+06
4.6123e+06
4.60923e+06
4.60615e+06
4.60305e+06
4.59994e+06
4.59681e+06
4.59367e+06
4.59052e+06
4.58736e+06
4.58418e+06
4.58098e+06
4.57778e+06
4.57455e+06
4.57132e+06
4.56807e+06
4.56481e+06
4.56153e+06
4.55824e+06
4.55493e+06
4.55162e+06
4.54828e+06
4.54494e+06
4.54157e+06
4.5382e+06
4.53481e+06
4.5314e+06
4.52798e+06
4.52455e+06
4.5211e+06
4.51764e+06
4.51417e+06
4.51068e+06
4.50717e+06
4.50365e+06
4.50011e+06
4.49656e+06
4.493e+06
4.48942e+06
4.48583e+06
4.48222e+06
4.47859e+06
4.47496e+06
4.4713e+06
4.46763e+06
4.46395e+06
4.46025e+06
4.45653e+06
4.4528e+06
4.44906e+06
4.4453e+06
4.44152e+06
4.43773e+06
4.43392e+06
4.4301e+06
4.42626e+06
4.42241e+06
4.41854e+06
4.41465e+06
4.41075e+06
4.40683e+06
4.4029e+06
4.39895e+06
4.39499e+06
4.391e+06
4.38701e+06
4.38299e+06
4.37896e+06
4.37491e+06
4.37085e+06
4.36677e+06
4.36267e+06
4.35856e+06
4.35443e+06
4.35028e+06
4.34612e+06
4.34193e+06
4.33774e+06
4.33352e+06
4.32929e+06
4.32504e+06
4.32077e+06
4.31648e+06
4.31218e+06
4.30786e+06
4.30352e+06
4.29917e+06
4.29479e+06
4.2904e+06
4.28599e+06
4.28156e+06
4.27712e+06
4.27265e+06
4.26817e+06
4.26367e+06
4.25915e+06
4.25461e+06
4.25005e+06
4.24548e+06
4.24088e+06
4.23627e+06
4.23163e+06
4.22698e+06
4.2223e+06
4.21761e+06
4.2129e+06
4.20817e+06
4.20341e+06
4.19864e+06
4.19385e+06
4.18904e+06
4.1842e+06
4.17935e+06
4.17447e+06
4.16958e+06
4.16466e+06
4.15972e+06
4.15477e+06
4.14978e+06
4.14478e+06
4.13976e+06
4.13471e+06
4.12964e+06
4.12455e+06
4.11944e+06
4.11431e+06
4.10915e+06
4.10397e+06
4.09876e+06
4.09354e+06
4.08828e+06
4.08301e+06
4.07771e+06
4.07239e+06
4.06704e+06
4.06167e+06
4.05627e+06
4.05085e+06
4.04541e+06
4.03993e+06
4.03444e+06
4.02891e+06
4.02336e+06
4.01779e+06
4.01218e+06
4.00655e+06
4.0009e+06
3.99521e+06
3.9895e+06
3.98376e+06
3.97799e+06
3.97219e+06
3.96636e+06
3.96051e+06
3.95462e+06
3.9487e+06
3.94276e+06
3.93678e+06
3.93077e+06
3.92473e+06
3.91866e+06
3.91255e+06
3.90641e+06
3.90024e+06
3.89403e+06
3.88779e+06
3.88152e+06
3.8752e+06
3.86886e+06
3.86247e+06
3.85605e+06
3.84959e+06
3.84309e+06
3.83656e+06
3.82998e+06
3.82336e+06
3.8167e+06
3.81e+06
3.80326e+06
3.79647e+06
3.78964e+06
3.78276e+06
3.77583e+06
3.76886e+06
3.76184e+06
3.75476e+06
3.74764e+06
3.74046e+06
3.73323e+06
3.72594e+06
3.7186e+06
3.7112e+06
3.70373e+06
3.6962e+06
3.68861e+06
3.68095e+06
3.67322e+06
3.66542e+06
3.65754e+06
3.64958e+06
3.64154e+06
3.63342e+06
3.6252e+06
3.61689e+06
3.60848e+06
3.59997e+06
3.59134e+06
3.5826e+06
3.57375e+06
3.56476e+06
3.55564e+06
3.54638e+06
3.53697e+06
3.52742e+06
3.51772e+06
3.50787e+06
3.49788e+06
3.48775e+06
3.47751e+06
3.4672e+06
3.45685e+06
3.44659e+06
3.43654e+06
3.42676e+06
3.41723e+06
3.40792e+06
3.39878e+06
3.38977e+06
3.38083e+06
3.37192e+06
3.36301e+06
3.35407e+06
3.34509e+06
3.33605e+06
3.32696e+06
3.3178e+06
3.30859e+06
3.29932e+06
3.29e+06
3.28063e+06
3.27122e+06
3.26177e+06
3.25229e+06
3.24277e+06
3.23322e+06
3.22365e+06
3.21405e+06
3.20442e+06
3.19477e+06
3.18509e+06
3.17539e+06
3.16566e+06
3.15592e+06
3.14615e+06
3.13635e+06
3.12654e+06
3.1167e+06
3.10685e+06
3.09697e+06
3.08707e+06
3.07715e+06
3.06722e+06
3.05726e+06
3.04729e+06
3.0373e+06
3.0273e+06
3.01728e+06
3.00724e+06
2.99719e+06
2.98713e+06
2.97706e+06
2.96697e+06
2.95687e+06
2.94676e+06
2.93665e+06
2.92652e+06
2.91639e+06
2.90625e+06
2.89611e+06
2.88596e+06
2.87581e+06
2.86566e+06
2.85551e+06
2.84537e+06
2.83524e+06
2.82512e+06
2.81501e+06
2.80493e+06
2.79488e+06
2.78485e+06
2.77486e+06
2.76492e+06
2.75503e+06
2.74519e+06
2.73542e+06
2.72572e+06
2.71609e+06
2.70655e+06
2.69708e+06
2.68768e+06
2.67834e+06
2.66911e+06
2.66004e+06
2.65115e+06
2.64248e+06
2.63406e+06
2.6259e+06
2.61804e+06
2.61049e+06
2.60329e+06
2.5965e+06
2.59019e+06
2.58448e+06
2.57945e+06
2.57519e+06
2.57181e+06
2.56947e+06
2.56851e+06
2.56968e+06
2.56834e+06
)
;

boundaryField
{
    sideLeft
    {
        type            symmetryPlane;
    }
    sideRight
    {
        type            calculated;
        value           uniform 2.56341e+06;
    }
    topbottom
    {
        type            empty;
    }
    frontback
    {
        type            empty;
    }
}


// ************************************************************************* //
