/*--------------------------------*- C++ -*----------------------------------*\
| =========                 |                                                 |
| \\      /  F ield         | OpenFOAM: The Open Source CFD Toolbox           |
|  \\    /   O peration     | Version:  2.4.0                                 |
|   \\  /    A nd           | Web:      www.OpenFOAM.org                      |
|    \\/     M anipulation  |                                                 |
\*---------------------------------------------------------------------------*/
FoamFile
{
    version     2.0;
    format      ascii;
    class       volScalarField;
    location    "0.19";
    object      T.air;
}
// * * * * * * * * * * * * * * * * * * * * * * * * * * * * * * * * * * * * * //

dimensions      [0 0 0 1 0 0 0];

internalField   nonuniform List<scalar> 
1000
(
300
300
300
300
300
300
300
300
300
300
300
300
300
300
300
300
300
300
300
300
300
300
300
300
300
300
300
300
300
300
300
300
300
300
300
300
300
300
300
300
300
300
300
300
300
300
300
300
300
300
300
300
300
300
300
300
300
300
300
300
300
300
300
300
300
300
300
300
300
300
300
300
300
300
300
300
300
300
300
300
300
300
300
300
300
300
300
300
300
300
300
300
300
300
300
300
300
300
300
300
300
300
300
300
300
300
300
300
300
300
300
300
300
300
300
300
300
300
300
300
300
300
300
300
300
300
300
300
300
300
300
300
300
300
300
300
300
300
300
300
300
300
300
300
300
300
300
300
300
300
300
300
300
300
300
300
300
300
300
300
300
300
300
300
300
300
300
300
300
300
300
300
300
300
300
300
300
300
300
300
300
300
300
300
300
300
300
300
300
300
300
300
300
300
300
300
300
300
300
300
300
300
300
300
300
300
300
300
300
300
300
300
300
300
300
300
300
300
300
300
300
300
300
300
300
300
300
300
300
300
300
300
300
300
300
300
300
300
300
300
300
300
300
300
300
300
300
300
300
300
300
300
300
300
300
300
300
300
300
300
300
300
300
300
300
300
300
300
300
300
300
300
300
300
300
300
300
300
300
300
300
300
300
300
300
300
300
300
300
300
300
300
300
300
300
300
300
300
300
300
300
300
300
300
300
300
300
300
300
300
300
300
300
300
300
300
300
300
300
300
300
300
300
300
300
300
300
300
300
300
300
300
300
300
300
300
300
300
300
300
300
300
300
300
300
300
300
300
300
300
300
300
300
300
300
300
300
300
300
300
300
300
300
300
300
300
300
300
300
300
300
300
300
300
300
300
300
300
300
300
300
299.999
299.999
299.999
299.999
299.999
299.998
299.998
299.998
299.997
299.997
299.996
299.995
299.994
299.993
299.992
299.99
299.989
299.987
299.984
299.982
299.979
299.976
299.972
299.968
299.963
299.958
299.952
299.945
299.938
299.93
299.922
299.912
299.902
299.891
299.879
299.866
299.852
299.837
299.822
299.805
299.787
299.768
299.748
299.727
299.705
299.682
299.658
299.632
299.606
299.579
299.551
299.522
299.492
299.461
299.429
299.396
299.363
299.329
299.294
299.258
299.221
299.184
299.147
299.108
299.069
299.03
298.99
298.95
298.909
298.867
298.826
298.784
298.741
298.698
298.655
298.612
298.568
298.524
298.48
298.436
298.392
298.347
298.302
298.257
298.212
298.167
298.121
298.076
298.03
297.984
297.938
297.893
297.847
297.8
297.754
297.708
297.662
297.615
297.569
297.523
297.476
297.429
297.383
297.336
297.289
297.243
297.196
297.149
297.102
297.055
297.008
296.961
296.914
296.867
296.819
296.772
296.725
296.678
296.63
296.583
296.535
296.488
296.44
296.393
296.345
296.297
296.249
296.202
296.154
296.106
296.058
296.01
295.962
295.914
295.866
295.817
295.769
295.721
295.672
295.624
295.576
295.527
295.478
295.43
295.381
295.332
295.284
295.235
295.186
295.137
295.088
295.039
294.99
294.94
294.891
294.842
294.793
294.743
294.694
294.644
294.595
294.545
294.495
294.445
294.396
294.346
294.296
294.246
294.196
294.146
294.096
294.045
293.995
293.945
293.894
293.844
293.794
293.743
293.692
293.642
293.591
293.54
293.489
293.439
293.388
293.337
293.286
293.234
293.183
293.132
293.081
293.029
292.978
292.926
292.875
292.823
292.772
292.72
292.668
292.616
292.564
292.513
292.461
292.408
292.356
292.304
292.252
292.2
292.147
292.095
292.042
291.99
291.937
291.884
291.831
291.779
291.726
291.673
291.62
291.567
291.513
291.46
291.407
291.353
291.3
291.246
291.193
291.139
291.086
291.032
290.978
290.924
290.87
290.816
290.762
290.707
290.653
290.599
290.544
290.49
290.435
290.381
290.326
290.271
290.216
290.161
290.106
290.051
289.996
289.94
289.885
289.83
289.774
289.719
289.663
289.607
289.551
289.495
289.439
289.383
289.327
289.271
289.215
289.158
289.102
289.045
288.989
288.932
288.875
288.818
288.761
288.704
288.647
288.59
288.532
288.475
288.417
288.36
288.302
288.244
288.186
288.128
288.07
288.012
287.954
287.895
287.837
287.778
287.72
287.661
287.602
287.543
287.484
287.425
287.366
287.306
287.247
287.187
287.127
287.068
287.008
286.948
286.888
286.828
286.767
286.707
286.646
286.586
286.525
286.464
286.403
286.342
286.281
286.219
286.158
286.096
286.035
285.973
285.911
285.849
285.787
285.724
285.662
285.599
285.537
285.474
285.411
285.348
285.285
285.221
285.158
285.094
285.031
284.966
284.904
284.836
284.777
284.706
284.65
284.574
284.523
284.442
284.395
284.309
284.265
284.178
284.134
284.046
284.002
283.913
283.869
283.78
283.736
283.647
283.602
283.512
283.467
283.377
283.331
283.242
283.193
283.109
283.053
282.976
282.911
282.842
282.77
282.705
282.63
282.564
282.493
282.421
282.355
282.277
282.215
282.133
282.074
281.989
281.932
281.845
281.788
281.699
281.644
281.553
281.499
281.406
281.353
281.257
281.206
281.107
281.058
280.958
280.907
280.807
280.756
280.655
280.604
280.502
280.451
280.348
280.297
280.193
280.141
280.037
279.984
279.879
279.826
279.72
279.667
279.56
279.506
279.398
279.344
279.235
279.181
279.071
279.016
278.905
278.849
278.738
278.681
278.569
278.512
278.398
278.34
278.225
278.167
278.051
277.992
277.875
277.816
277.697
277.637
277.517
277.456
277.335
277.274
277.151
277.089
276.965
276.902
276.776
276.712
276.585
276.52
276.391
276.326
276.195
276.129
275.996
275.929
275.795
275.726
275.59
275.521
275.382
275.312
275.171
275.099
274.956
274.883
274.738
274.664
274.516
274.44
274.289
274.213
274.059
273.981
273.824
273.744
273.584
273.502
273.338
273.255
273.088
273.002
272.831
272.743
272.568
272.478
272.298
272.205
272.02
271.925
271.734
271.636
271.439
271.338
271.135
271.03
270.819
270.71
270.489
270.376
270.147
270.028
269.789
269.665
269.412
269.28
269.012
268.87
268.585
268.434
268.129
267.967
267.637
267.459
267.098
266.902
266.503
266.285
265.843
265.601
265.115
264.834
264.311
263.992
263.438
262.324
261.758
260.638
260.076
258.975
258.428
257.348
256.814
255.749
255.219
254.157
253.622
252.548
252.002
250.905
250.343
249.214
248.632
247.462
246.858
245.643
245.017
243.756
243.108
241.803
241.133
239.785
239.095
237.707
236.999
235.574
234.847
233.387
232.644
231.149
230.389
228.861
228.085
226.524
225.731
224.137
223.329
221.702
220.876
219.216
218.375
216.682
215.824
214.099
213.226
211.469
210.579
208.791
207.886
206.067
205.147
203.298
202.363
200.484
199.535
197.627
196.664
194.728
193.751
191.787
190.796
188.805
187.801
185.783
184.766
182.722
181.692
179.623
178.581
176.488
175.432
173.316
172.248
170.113
169.032
166.873
165.782
163.603
162.507
160.308
159.203
156.984
155.875
153.634
152.524
150.291
149.163
146.941
145.767
143.513
142.314
139.733
139.923
140.735
)
;

boundaryField
{
    sideLeft
    {
        type            symmetryPlane;
    }
    sideRight
    {
        type            zeroGradient;
    }
    topbottom
    {
        type            empty;
    }
    frontback
    {
        type            empty;
    }
}


// ************************************************************************* //
