/*--------------------------------*- C++ -*----------------------------------*\
| =========                 |                                                 |
| \\      /  F ield         | OpenFOAM: The Open Source CFD Toolbox           |
|  \\    /   O peration     | Version:  2.4.0                                 |
|   \\  /    A nd           | Web:      www.OpenFOAM.org                      |
|    \\/     M anipulation  |                                                 |
\*---------------------------------------------------------------------------*/
FoamFile
{
    version     2.0;
    format      ascii;
    class       volScalarField;
    location    "0.19";
    object      T.water;
}
// * * * * * * * * * * * * * * * * * * * * * * * * * * * * * * * * * * * * * //

dimensions      [0 0 0 1 0 0 0];

internalField   nonuniform List<scalar> 
1000
(
300
300
300
300
300
300
300
300
300
300
300
300
300
300
300
300
300
300
300
300
300
300
300
300
300
300
300
300
300
300
300
300
300
300
300
300
300
300
300
300
300
300
300
300
300
300
300
300
300
300
300
300
300
300
300
300
300
300
300
300
300
300
300
300
300
300
300
300
300
300
300
300
300
300
300
300
300
300
300
300
300
300
300
300
300
300
300
300
300
300
300
300
300
300
300
300
300
300
300
300
300
300
300
300
300
300
300
300
300
300
300
300
300
300
300
300
300
300
300
300
300
300
300
300
300
300
300
300
300
300
300
300
300
300
300
300
300
300
300
300
300
300
300
300
300
300
300
300
300
300
300
300
300
300
300
300
300
300
300
300
300
300
300
300
300
300
300
300
300
300
300
300
300
300
300
300
300
300
300
300
300
300
300
300
300
300
300
300
300
300
300
300
300
300
300
300
300
300
300
300
300
300
300
300
300
300
300
300
300
300
300
300
300
300
300
300
300
300
300
300
300
300
300
300
300
300
300
300
300
300
300
300
300
300
300
300
300
300
300
300
300
300
300
300
300
300
300
300
300
300
300
300
300
300
300
300
300
300
300
300
300
300
300
300
300
300
300
300
300
300
300
300
300
300
300
300
300
300
300
300
300
300
300
300
300
300
300
300
300
300
300
300
300
300
300
300
300
300
300
300
300
300
300
300
300
300
300
300
300
300
300
300
300
300
300
300
300
300
300
300
300
300
300
300
300
300
300
300
300
300
300
300
300
300
300
300
300
300
300
300
300
300
300
300
300
300
300
300
300
300
300
300
300
300
300
300
300
300
300
300
300
300
300
300
300
300
300
300
300
300
300
300
300
300
300
300
300
300
300
300
300
299.999
299.999
299.999
299.999
299.999
299.998
299.998
299.998
299.997
299.996
299.996
299.995
299.994
299.993
299.991
299.99
299.988
299.986
299.984
299.981
299.978
299.974
299.971
299.966
299.961
299.956
299.95
299.943
299.936
299.928
299.919
299.909
299.899
299.888
299.875
299.862
299.848
299.833
299.817
299.8
299.781
299.762
299.742
299.721
299.698
299.675
299.651
299.625
299.599
299.571
299.543
299.514
299.483
299.452
299.42
299.387
299.354
299.319
299.284
299.248
299.212
299.174
299.136
299.098
299.059
299.019
298.979
298.939
298.898
298.857
298.815
298.773
298.73
298.688
298.645
298.601
298.558
298.514
298.47
298.425
298.381
298.336
298.291
298.246
298.201
298.156
298.111
298.065
298.02
297.974
297.928
297.882
297.836
297.79
297.744
297.698
297.652
297.605
297.559
297.513
297.466
297.42
297.373
297.326
297.28
297.233
297.186
297.139
297.092
297.046
296.999
296.952
296.904
296.857
296.81
296.763
296.716
296.668
296.621
296.574
296.526
296.479
296.431
296.384
296.336
296.288
296.241
296.193
296.145
296.097
296.049
296.001
295.953
295.905
295.857
295.809
295.761
295.713
295.664
295.616
295.567
295.519
295.47
295.422
295.373
295.324
295.276
295.227
295.178
295.129
295.08
295.031
294.982
294.933
294.884
294.834
294.785
294.736
294.686
294.637
294.587
294.537
294.488
294.438
294.388
294.339
294.289
294.239
294.189
294.139
294.089
294.038
293.988
293.938
293.887
293.837
293.787
293.736
293.686
293.635
293.584
293.533
293.483
293.432
293.381
293.33
293.279
293.228
293.177
293.125
293.074
293.023
292.971
292.92
292.869
292.817
292.765
292.714
292.662
292.61
292.558
292.506
292.454
292.402
292.35
292.298
292.246
292.193
292.141
292.089
292.036
291.984
291.931
291.878
291.826
291.773
291.72
291.667
291.614
291.561
291.508
291.454
291.401
291.348
291.294
291.241
291.187
291.134
291.08
291.026
290.972
290.918
290.864
290.81
290.756
290.702
290.648
290.593
290.539
290.485
290.43
290.375
290.321
290.266
290.211
290.156
290.101
290.046
289.991
289.935
289.88
289.825
289.769
289.714
289.658
289.602
289.546
289.491
289.435
289.379
289.322
289.266
289.21
289.154
289.097
289.041
288.984
288.927
288.87
288.814
288.757
288.699
288.642
288.585
288.528
288.47
288.413
288.355
288.298
288.24
288.182
288.124
288.066
288.008
287.949
287.891
287.833
287.774
287.715
287.657
287.598
287.539
287.48
287.421
287.361
287.302
287.243
287.183
287.123
287.064
287.004
286.944
286.884
286.824
286.763
286.703
286.642
286.582
286.521
286.46
286.399
286.338
286.277
286.216
286.154
286.093
286.031
285.969
285.907
285.845
285.783
285.721
285.658
285.596
285.533
285.47
285.407
285.344
285.281
285.218
285.155
285.09
285.028
284.962
284.901
284.833
284.774
284.703
284.646
284.571
284.519
284.439
284.392
284.306
284.262
284.174
284.131
284.043
283.999
283.91
283.866
283.777
283.733
283.644
283.599
283.509
283.464
283.374
283.328
283.24
283.19
283.106
283.05
282.973
282.908
282.839
282.767
282.702
282.628
282.561
282.49
282.418
282.352
282.274
282.213
282.131
282.071
281.987
281.929
281.842
281.786
281.697
281.641
281.551
281.496
281.403
281.35
281.254
281.204
281.105
281.055
280.955
280.905
280.805
280.754
280.653
280.602
280.5
280.449
280.346
280.294
280.191
280.139
280.035
279.982
279.877
279.824
279.718
279.665
279.558
279.504
279.396
279.342
279.233
279.179
279.069
279.014
278.903
278.847
278.736
278.679
278.567
278.51
278.396
278.338
278.223
278.165
278.049
277.991
277.873
277.814
277.695
277.635
277.515
277.455
277.333
277.272
277.149
277.087
276.963
276.9
276.774
276.711
276.583
276.519
276.39
276.324
276.194
276.127
275.995
275.928
275.793
275.725
275.588
275.519
275.38
275.31
275.169
275.098
274.955
274.882
274.736
274.662
274.514
274.439
274.288
274.211
274.058
273.979
273.822
273.743
273.583
273.501
273.337
273.254
273.087
273.001
272.83
272.742
272.567
272.477
272.297
272.204
272.019
271.924
271.733
271.635
271.439
271.338
271.135
271.029
270.818
270.709
270.489
270.375
270.146
270.027
269.789
269.664
269.412
269.279
269.011
268.87
268.585
268.433
268.129
267.966
267.637
267.458
267.098
266.901
266.503
266.285
265.843
265.6
265.115
264.834
264.311
263.991
263.438
262.324
261.758
260.638
260.076
258.975
258.428
257.348
256.814
255.749
255.219
254.158
253.623
252.549
252.003
250.906
250.344
249.215
248.633
247.463
246.86
245.644
245.018
243.757
243.109
241.804
241.134
239.786
239.096
237.708
237
235.575
234.848
233.388
232.645
231.15
230.39
228.862
228.086
226.525
225.732
224.138
223.329
221.703
220.877
219.217
218.375
216.683
215.825
214.1
213.226
211.469
210.579
208.791
207.886
206.067
205.147
203.297
202.363
200.484
199.534
197.626
196.663
194.727
193.75
191.785
190.794
188.802
187.798
185.78
184.763
182.718
181.689
179.617
178.577
176.48
175.429
173.306
172.245
170.099
169.028
166.857
165.775
163.587
162.491
160.294
159.179
156.971
155.849
153.617
152.504
150.263
149.143
146.895
145.791
143.407
142.5
139.588
139.982
140.703
)
;

boundaryField
{
    sideLeft
    {
        type            symmetryPlane;
    }
    sideRight
    {
        type            zeroGradient;
    }
    topbottom
    {
        type            empty;
    }
    frontback
    {
        type            empty;
    }
}


// ************************************************************************* //
