/*--------------------------------*- C++ -*----------------------------------*\
| =========                 |                                                 |
| \\      /  F ield         | OpenFOAM: The Open Source CFD Toolbox           |
|  \\    /   O peration     | Version:  2.4.0                                 |
|   \\  /    A nd           | Web:      www.OpenFOAM.org                      |
|    \\/     M anipulation  |                                                 |
\*---------------------------------------------------------------------------*/
FoamFile
{
    version     2.0;
    format      ascii;
    class       volVectorField;
    location    "0.19";
    object      U.airMean;
}
// * * * * * * * * * * * * * * * * * * * * * * * * * * * * * * * * * * * * * //

dimensions      [0 1 -1 0 0 0 0];

internalField   nonuniform List<vector> 
1000
(
(-5.96585e-14 0 0)
(-2.75282e-14 0 0)
(-6.13494e-14 0 0)
(-2.24947e-14 0 0)
(-7.69961e-14 0 0)
(-9.60033e-15 0 0)
(-5.42702e-14 0 0)
(-3.99064e-14 0 0)
(-4.20978e-14 0 0)
(-3.83807e-14 0 0)
(-4.80252e-14 0 0)
(-7.39372e-14 0 0)
(-3.36802e-14 0 0)
(-8.35293e-14 0 0)
(-2.75434e-14 0 0)
(-6.18803e-14 0 0)
(-1.48096e-14 0 0)
(-4.70451e-14 0 0)
(1.10615e-14 0 0)
(-6.79608e-14 0 0)
(1.87202e-14 0 0)
(-5.39558e-14 0 0)
(-2.15934e-14 0 0)
(-6.93152e-14 0 0)
(-5.82458e-14 0 0)
(-7.0886e-14 0 0)
(-7.14319e-14 0 0)
(-6.27077e-14 0 0)
(-1.09947e-13 0 0)
(-4.79361e-14 0 0)
(-9.34211e-14 0 0)
(-8.33391e-14 0 0)
(-6.86685e-14 0 0)
(-9.51339e-14 0 0)
(-4.72779e-14 0 0)
(-1.13383e-13 0 0)
(-1.31872e-14 0 0)
(-8.87872e-14 0 0)
(-3.8239e-14 0 0)
(-8.15212e-14 0 0)
(-4.42561e-14 0 0)
(-8.00741e-14 0 0)
(-6.2225e-14 0 0)
(-5.81484e-14 0 0)
(-4.17016e-14 0 0)
(-4.70866e-14 0 0)
(-5.76736e-14 0 0)
(-5.4192e-14 0 0)
(-6.81447e-14 0 0)
(-6.56431e-14 0 0)
(-6.4229e-14 0 0)
(-4.4211e-14 0 0)
(-3.83242e-14 0 0)
(-3.26627e-14 0 0)
(-9.97358e-15 0 0)
(-4.76081e-15 0 0)
(-4.3231e-15 0 0)
(-2.77497e-15 0 0)
(-1.86422e-14 0 0)
(4.82126e-16 0 0)
(-3.21385e-14 0 0)
(3.90569e-14 0 0)
(1.78402e-15 0 0)
(-1.97061e-15 0 0)
(3.7969e-14 0 0)
(1.96373e-14 0 0)
(4.19629e-14 0 0)
(3.46333e-14 0 0)
(1.56321e-14 0 0)
(2.40423e-14 0 0)
(2.38993e-15 0 0)
(5.98701e-15 0 0)
(-1.60429e-14 0 0)
(1.41358e-14 0 0)
(1.99695e-15 0 0)
(-6.13283e-15 0 0)
(1.55792e-14 0 0)
(-2.1351e-15 0 0)
(-8.29455e-15 0 0)
(8.51893e-15 0 0)
(-1.19558e-14 0 0)
(2.21912e-14 0 0)
(-1.1346e-14 0 0)
(4.19328e-14 0 0)
(-1.67534e-14 0 0)
(4.22732e-14 0 0)
(-9.19553e-15 0 0)
(2.83391e-14 0 0)
(6.01349e-15 0 0)
(7.29264e-15 0 0)
(2.87057e-14 0 0)
(1.81974e-14 0 0)
(1.39305e-14 0 0)
(2.09908e-14 0 0)
(-4.66693e-15 0 0)
(2.81856e-14 0 0)
(-3.43559e-14 0 0)
(5.00664e-14 0 0)
(-1.80286e-14 0 0)
(9.90255e-15 0 0)
(-8.00272e-15 0 0)
(1.70827e-14 0 0)
(7.46453e-15 0 0)
(6.36108e-15 0 0)
(-6.55941e-15 0 0)
(-4.39017e-15 0 0)
(2.04222e-14 0 0)
(9.99987e-15 0 0)
(-2.29352e-14 0 0)
(5.77382e-15 0 0)
(-4.08558e-14 0 0)
(9.67049e-15 0 0)
(-2.03325e-14 0 0)
(-1.59462e-14 0 0)
(2.12429e-15 0 0)
(2.50944e-15 0 0)
(4.43977e-14 0 0)
(4.31075e-14 0 0)
(7.7535e-14 0 0)
(3.25283e-14 0 0)
(9.12259e-14 0 0)
(6.85901e-14 0 0)
(1.20388e-13 0 0)
(7.74458e-14 0 0)
(1.20743e-13 0 0)
(6.25244e-14 0 0)
(1.1562e-13 0 0)
(6.38146e-14 0 0)
(1.20747e-13 0 0)
(4.75099e-14 0 0)
(1.17964e-13 0 0)
(3.58045e-14 0 0)
(7.7763e-14 0 0)
(5.47569e-14 0 0)
(8.97674e-14 0 0)
(6.33695e-14 0 0)
(6.7984e-14 0 0)
(7.98575e-14 0 0)
(7.43227e-14 0 0)
(8.50669e-14 0 0)
(6.14621e-14 0 0)
(7.9371e-14 0 0)
(3.70571e-14 0 0)
(6.03882e-14 0 0)
(8.23906e-15 0 0)
(6.40606e-14 0 0)
(3.39378e-14 0 0)
(5.55121e-14 0 0)
(4.64283e-14 0 0)
(5.65143e-14 0 0)
(3.63461e-14 0 0)
(2.78571e-14 0 0)
(1.84891e-14 0 0)
(4.39452e-14 0 0)
(3.8201e-14 0 0)
(7.34662e-14 0 0)
(2.88856e-14 0 0)
(6.0912e-14 0 0)
(1.31789e-14 0 0)
(5.4719e-14 0 0)
(1.15861e-14 0 0)
(7.86603e-14 0 0)
(3.01648e-14 0 0)
(6.18132e-14 0 0)
(4.62828e-14 0 0)
(7.67569e-14 0 0)
(7.1396e-15 0 0)
(7.48645e-14 0 0)
(7.89855e-15 0 0)
(2.9106e-14 0 0)
(2.14292e-15 0 0)
(2.51904e-14 0 0)
(5.94867e-16 0 0)
(3.21499e-14 0 0)
(-2.54258e-15 0 0)
(3.8395e-14 0 0)
(-2.14691e-14 0 0)
(4.33949e-14 0 0)
(-1.03362e-14 0 0)
(-6.07321e-15 0 0)
(6.43184e-16 0 0)
(-1.52948e-15 0 0)
(2.43152e-14 0 0)
(-2.30397e-14 0 0)
(4.85144e-14 0 0)
(-1.78677e-14 0 0)
(5.81665e-14 0 0)
(-3.70294e-14 0 0)
(8.32784e-14 0 0)
(-3.72014e-15 0 0)
(1.00193e-13 0 0)
(1.13956e-14 0 0)
(1.03006e-13 0 0)
(1.14925e-14 0 0)
(7.8137e-14 0 0)
(1.29434e-14 0 0)
(5.89974e-14 0 0)
(3.28234e-14 0 0)
(7.51228e-14 0 0)
(1.46113e-14 0 0)
(7.6854e-14 0 0)
(-9.96553e-15 0 0)
(9.88171e-14 0 0)
(2.72254e-14 0 0)
(5.79316e-14 0 0)
(5.09648e-14 0 0)
(9.02574e-14 0 0)
(7.70566e-14 0 0)
(7.58113e-14 0 0)
(8.9562e-14 0 0)
(8.81859e-14 0 0)
(1.19259e-13 0 0)
(8.15669e-14 0 0)
(1.39879e-13 0 0)
(8.93643e-14 0 0)
(1.59513e-13 0 0)
(1.18403e-13 0 0)
(1.37569e-13 0 0)
(1.29962e-13 0 0)
(1.26069e-13 0 0)
(1.40725e-13 0 0)
(1.18066e-13 0 0)
(1.5869e-13 0 0)
(1.44307e-13 0 0)
(1.35564e-13 0 0)
(1.72082e-13 0 0)
(1.71682e-13 0 0)
(1.53249e-13 0 0)
(1.68234e-13 0 0)
(1.59031e-13 0 0)
(1.28904e-13 0 0)
(1.45467e-13 0 0)
(9.70045e-14 0 0)
(1.57893e-13 0 0)
(7.73451e-14 0 0)
(1.77426e-13 0 0)
(9.75917e-14 0 0)
(1.55216e-13 0 0)
(8.99737e-14 0 0)
(1.06518e-13 0 0)
(1.16009e-13 0 0)
(1.27987e-13 0 0)
(9.19299e-14 0 0)
(1.65388e-13 0 0)
(1.36608e-13 0 0)
(1.38589e-13 0 0)
(1.67651e-13 0 0)
(1.61248e-13 0 0)
(1.8025e-13 0 0)
(1.76312e-13 0 0)
(1.64981e-13 0 0)
(1.99782e-13 0 0)
(1.9028e-13 0 0)
(1.61495e-13 0 0)
(1.85429e-13 0 0)
(1.52838e-13 0 0)
(1.95799e-13 0 0)
(1.52834e-13 0 0)
(1.90219e-13 0 0)
(1.4531e-13 0 0)
(2.09987e-13 0 0)
(1.7163e-13 0 0)
(1.77669e-13 0 0)
(1.65871e-13 0 0)
(1.41791e-13 0 0)
(1.66551e-13 0 0)
(9.33399e-14 0 0)
(1.89366e-13 0 0)
(1.06358e-13 0 0)
(2.07242e-13 0 0)
(1.25987e-13 0 0)
(2.05892e-13 0 0)
(1.34742e-13 0 0)
(1.67501e-13 0 0)
(1.55153e-13 0 0)
(1.92818e-13 0 0)
(1.35093e-13 0 0)
(2.04112e-13 0 0)
(1.5181e-13 0 0)
(1.913e-13 0 0)
(1.85377e-13 0 0)
(2.0979e-13 0 0)
(2.11027e-13 0 0)
(1.49174e-13 0 0)
(2.27115e-13 0 0)
(1.85964e-13 0 0)
(1.8958e-13 0 0)
(2.12561e-13 0 0)
(2.1262e-13 0 0)
(1.94442e-13 0 0)
(2.19696e-13 0 0)
(2.0734e-13 0 0)
(2.34797e-13 0 0)
(1.74046e-13 0 0)
(2.58327e-13 0 0)
(2.01379e-13 0 0)
(2.26502e-13 0 0)
(2.20193e-13 0 0)
(2.52556e-13 0 0)
(1.91754e-13 0 0)
(2.71461e-13 0 0)
(2.00897e-13 0 0)
(2.39838e-13 0 0)
(2.03043e-13 0 0)
(2.00654e-13 0 0)
(2.25047e-13 0 0)
(2.22808e-13 0 0)
(2.016e-13 0 0)
(2.05051e-13 0 0)
(1.59173e-13 0 0)
(2.10769e-13 0 0)
(1.63683e-13 0 0)
(1.91413e-13 0 0)
(1.8761e-13 0 0)
(2.31076e-13 0 0)
(2.27606e-13 0 0)
(2.58514e-13 0 0)
(2.56629e-13 0 0)
(2.65152e-13 0 0)
(3.36763e-13 0 0)
(3.67474e-13 0 0)
(4.21176e-13 0 0)
(5.31673e-13 0 0)
(6.44552e-13 0 0)
(8.5783e-13 0 0)
(1.1204e-12 0 0)
(1.5131e-12 0 0)
(2.16104e-12 0 0)
(3.02382e-12 0 0)
(4.32549e-12 0 0)
(6.2185e-12 0 0)
(8.92489e-12 0 0)
(1.27651e-11 0 0)
(1.83859e-11 0 0)
(2.62817e-11 0 0)
(3.77204e-11 0 0)
(5.38224e-11 0 0)
(7.67855e-11 0 0)
(1.09249e-10 0 0)
(1.55071e-10 0 0)
(2.19585e-10 0 0)
(3.10099e-10 0 0)
(4.36852e-10 0 0)
(6.137e-10 0 0)
(8.60012e-10 0 0)
(1.20177e-09 0 0)
(1.67505e-09 0 0)
(2.32815e-09 0 0)
(3.22721e-09 0 0)
(4.46114e-09 0 0)
(6.14995e-09 0 0)
(8.45465e-09 0 0)
(1.15908e-08 0 0)
(1.5846e-08 0 0)
(2.16028e-08 0 0)
(2.93683e-08 0 0)
(3.98127e-08 0 0)
(5.38189e-08 0 0)
(7.25458e-08 0 0)
(9.751e-08 0 0)
(1.3069e-07 0 0)
(1.74657e-07 0 0)
(2.32741e-07 0 0)
(3.09246e-07 0 0)
(4.09704e-07 0 0)
(5.41214e-07 0 0)
(7.12843e-07 0 0)
(9.36143e-07 0 0)
(1.22577e-06 0 0)
(1.60025e-06 0 0)
(2.08294e-06 0 0)
(2.70314e-06 0 0)
(3.49753e-06 0 0)
(4.5118e-06 0 0)
(5.80269e-06 0 0)
(7.44039e-06 0 0)
(9.51141e-06 0 0)
(1.2122e-05 0 0)
(1.54019e-05 0 0)
(1.95096e-05 0 0)
(2.4637e-05 0 0)
(3.10164e-05 0 0)
(3.89273e-05 0 0)
(4.8705e-05 0 0)
(6.07498e-05 0 0)
(7.55381e-05 0 0)
(9.36341e-05 0 0)
(0.000115703 0 0)
(0.000142528 0 0)
(0.000175023 0 0)
(0.000214253 0 0)
(0.000261453 0 0)
(0.000318052 0 0)
(0.000385688 0 0)
(0.000466239 0 0)
(0.000561843 0 0)
(0.000674927 0 0)
(0.000808231 0 0)
(0.000964833 0 0)
(0.00114818 0 0)
(0.00136211 0 0)
(0.00161087 0 0)
(0.00189916 0 0)
(0.00223213 0 0)
(0.00261542 0 0)
(0.00305517 0 0)
(0.003558 0 0)
(0.00413109 0 0)
(0.00478211 0 0)
(0.00551927 0 0)
(0.00635128 0 0)
(0.00728739 0 0)
(0.0083373 0 0)
(0.00951123 0 0)
(0.0108198 0 0)
(0.0122741 0 0)
(0.0138856 0 0)
(0.0156661 0 0)
(0.0176277 0 0)
(0.0197828 0 0)
(0.022144 0 0)
(0.024724 0 0)
(0.0275358 0 0)
(0.0305924 0 0)
(0.0339067 0 0)
(0.0374918 0 0)
(0.0413605 0 0)
(0.0455256 0 0)
(0.0499999 0 0)
(0.0547958 0 0)
(0.0599254 0 0)
(0.0654008 0 0)
(0.0712337 0 0)
(0.0774353 0 0)
(0.0840167 0 0)
(0.0909885 0 0)
(0.098361 0 0)
(0.106144 0 0)
(0.114347 0 0)
(0.122979 0 0)
(0.132048 0 0)
(0.141564 0 0)
(0.151533 0 0)
(0.161963 0 0)
(0.17286 0 0)
(0.184233 0 0)
(0.196085 0 0)
(0.208425 0 0)
(0.221256 0 0)
(0.234583 0 0)
(0.248413 0 0)
(0.262748 0 0)
(0.277593 0 0)
(0.292952 0 0)
(0.308828 0 0)
(0.325224 0 0)
(0.342144 0 0)
(0.359589 0 0)
(0.377563 0 0)
(0.396068 0 0)
(0.415105 0 0)
(0.434676 0 0)
(0.454784 0 0)
(0.47543 0 0)
(0.496615 0 0)
(0.51834 0 0)
(0.540607 0 0)
(0.563416 0 0)
(0.586769 0 0)
(0.610666 0 0)
(0.635109 0 0)
(0.660096 0 0)
(0.685631 0 0)
(0.711712 0 0)
(0.73834 0 0)
(0.765516 0 0)
(0.79324 0 0)
(0.821513 0 0)
(0.850335 0 0)
(0.879706 0 0)
(0.909627 0 0)
(0.940097 0 0)
(0.971117 0 0)
(1.00269 0 0)
(1.03481 0 0)
(1.06748 0 0)
(1.1007 0 0)
(1.13448 0 0)
(1.16881 0 0)
(1.20368 0 0)
(1.23911 0 0)
(1.2751 0 0)
(1.31163 0 0)
(1.34872 0 0)
(1.38636 0 0)
(1.42455 0 0)
(1.4633 0 0)
(1.5026 0 0)
(1.54246 0 0)
(1.58287 0 0)
(1.62384 0 0)
(1.66536 0 0)
(1.70744 0 0)
(1.75007 0 0)
(1.79327 0 0)
(1.83701 0 0)
(1.88132 0 0)
(1.92618 0 0)
(1.97161 0 0)
(2.01759 0 0)
(2.06413 0 0)
(2.11123 0 0)
(2.15889 0 0)
(2.20711 0 0)
(2.25589 0 0)
(2.30524 0 0)
(2.35515 0 0)
(2.40562 0 0)
(2.45665 0 0)
(2.50825 0 0)
(2.56041 0 0)
(2.61314 0 0)
(2.66644 0 0)
(2.7203 0 0)
(2.77473 0 0)
(2.82973 0 0)
(2.8853 0 0)
(2.94143 0 0)
(2.99814 0 0)
(3.05541 0 0)
(3.11326 0 0)
(3.17168 0 0)
(3.23068 0 0)
(3.29025 0 0)
(3.35039 0 0)
(3.41111 0 0)
(3.4724 0 0)
(3.53427 0 0)
(3.59672 0 0)
(3.65975 0 0)
(3.72335 0 0)
(3.78754 0 0)
(3.8523 0 0)
(3.91765 0 0)
(3.98358 0 0)
(4.0501 0 0)
(4.1172 0 0)
(4.18488 0 0)
(4.25315 0 0)
(4.32201 0 0)
(4.39145 0 0)
(4.46148 0 0)
(4.53211 0 0)
(4.60332 0 0)
(4.67512 0 0)
(4.74752 0 0)
(4.82051 0 0)
(4.89409 0 0)
(4.96827 0 0)
(5.04304 0 0)
(5.11842 0 0)
(5.19439 0 0)
(5.27096 0 0)
(5.34812 0 0)
(5.42589 0 0)
(5.50426 0 0)
(5.58324 0 0)
(5.66282 0 0)
(5.743 0 0)
(5.82379 0 0)
(5.90519 0 0)
(5.98719 0 0)
(6.06981 0 0)
(6.15303 0 0)
(6.23687 0 0)
(6.32132 0 0)
(6.40638 0 0)
(6.49205 0 0)
(6.57835 0 0)
(6.66526 0 0)
(6.75279 0 0)
(6.84093 0 0)
(6.9297 0 0)
(7.01909 0 0)
(7.1091 0 0)
(7.19974 0 0)
(7.291 0 0)
(7.38289 0 0)
(7.47541 0 0)
(7.56855 0 0)
(7.66233 0 0)
(7.75674 0 0)
(7.85178 0 0)
(7.94745 0 0)
(8.04376 0 0)
(8.14071 0 0)
(8.2383 0 0)
(8.33652 0 0)
(8.43539 0 0)
(8.5349 0 0)
(8.63505 0 0)
(8.73585 0 0)
(8.83729 0 0)
(8.93939 0 0)
(9.04213 0 0)
(9.14552 0 0)
(9.24956 0 0)
(9.35426 0 0)
(9.45962 0 0)
(9.56563 0 0)
(9.6723 0 0)
(9.77963 0 0)
(9.88762 0 0)
(9.99627 0 0)
(10.1056 0 0)
(10.2156 0 0)
(10.3262 0 0)
(10.4376 0 0)
(10.5495 0 0)
(10.6622 0 0)
(10.7756 0 0)
(10.8896 0 0)
(11.0043 0 0)
(11.1196 0 0)
(11.2357 0 0)
(11.3524 0 0)
(11.4698 0 0)
(11.588 0 0)
(11.7068 0 0)
(11.8262 0 0)
(11.9464 0 0)
(12.0673 0 0)
(12.1889 0 0)
(12.3111 0 0)
(12.4341 0 0)
(12.5577 0 0)
(12.6821 0 0)
(12.8072 0 0)
(12.933 0 0)
(13.0594 0 0)
(13.1866 0 0)
(13.3145 0 0)
(13.4432 0 0)
(13.5725 0 0)
(13.7026 0 0)
(13.8333 0 0)
(13.9648 0 0)
(14.0971 0 0)
(14.23 0 0)
(14.3637 0 0)
(14.4981 0 0)
(14.6333 0 0)
(14.7691 0 0)
(14.9058 0 0)
(15.0431 0 0)
(15.1812 0 0)
(15.3201 0 0)
(15.4597 0 0)
(15.6 0 0)
(15.7411 0 0)
(15.8829 0 0)
(16.0255 0 0)
(16.1689 0 0)
(16.313 0 0)
(16.4579 0 0)
(16.6035 0 0)
(16.75 0 0)
(16.8971 0 0)
(17.0451 0 0)
(17.1938 0 0)
(17.3433 0 0)
(17.4936 0 0)
(17.6447 0 0)
(17.7966 0 0)
(17.9492 0 0)
(18.1027 0 0)
(18.2569 0 0)
(18.4119 0 0)
(18.5678 0 0)
(18.7244 0 0)
(18.8818 0 0)
(19.0401 0 0)
(19.1991 0 0)
(19.359 0 0)
(19.5197 0 0)
(19.6812 0 0)
(19.8435 0 0)
(20.0067 0 0)
(20.1707 0 0)
(20.3355 0 0)
(20.5011 0 0)
(20.6676 0 0)
(20.8349 0 0)
(21.0031 0 0)
(21.1721 0 0)
(21.342 0 0)
(21.5127 0 0)
(21.6843 0 0)
(21.8567 0 0)
(22.03 0 0)
(22.2042 0 0)
(22.3793 0 0)
(22.5552 0 0)
(22.732 0 0)
(22.9096 0 0)
(23.0882 0 0)
(23.2677 0 0)
(23.448 0 0)
(23.6292 0 0)
(23.8114 0 0)
(23.9944 0 0)
(24.1784 0 0)
(24.3632 0 0)
(24.549 0 0)
(24.7357 0 0)
(24.9233 0 0)
(25.1119 0 0)
(25.3013 0 0)
(25.4918 0 0)
(25.6831 0 0)
(25.8755 0 0)
(26.0686 0 0)
(26.263 0 0)
(26.4579 0 0)
(26.6543 0 0)
(26.851 0 0)
(27.0496 0 0)
(27.248 0 0)
(27.4487 0 0)
(27.649 0 0)
(27.8518 0 0)
(28.0539 0 0)
(28.2588 0 0)
(28.4628 0 0)
(28.6697 0 0)
(28.8759 0 0)
(29.0847 0 0)
(29.2931 0 0)
(29.5037 0 0)
(29.7145 0 0)
(29.9268 0 0)
(30.1402 0 0)
(30.3539 0 0)
(30.5701 0 0)
(30.7853 0 0)
(31.0043 0 0)
(31.2209 0 0)
(31.4428 0 0)
(31.6608 0 0)
(31.8857 0 0)
(32.1051 0 0)
(32.333 0 0)
(32.5539 0 0)
(32.7847 0 0)
(33.0071 0 0)
(33.2409 0 0)
(33.4648 0 0)
(33.7017 0 0)
(33.9271 0 0)
(34.1672 0 0)
(34.394 0 0)
(34.6372 0 0)
(34.8657 0 0)
(35.1121 0 0)
(35.342 0 0)
(35.5917 0 0)
(35.8232 0 0)
(36.0761 0 0)
(36.3093 0 0)
(36.5655 0 0)
(36.8003 0 0)
(37.0599 0 0)
(37.2964 0 0)
(37.5592 0 0)
(37.7975 0 0)
(38.0637 0 0)
(38.3039 0 0)
(38.5732 0 0)
(38.8156 0 0)
(39.0879 0 0)
(39.3327 0 0)
(39.608 0 0)
(39.8551 0 0)
(40.1334 0 0)
(40.3831 0 0)
(40.6644 0 0)
(40.9166 0 0)
(41.2009 0 0)
(41.4557 0 0)
(41.7432 0 0)
(42.0005 0 0)
(42.2912 0 0)
(42.5512 0 0)
(42.845 0 0)
(43.1077 0 0)
(43.4049 0 0)
(43.6703 0 0)
(43.9708 0 0)
(44.2391 0 0)
(44.5429 0 0)
(44.814 0 0)
(45.1212 0 0)
(45.3953 0 0)
(45.706 0 0)
(45.9831 0 0)
(46.2974 0 0)
(46.5775 0 0)
(46.8954 0 0)
(47.1785 0 0)
(47.5001 0 0)
(47.7865 0 0)
(48.1118 0 0)
(48.4014 0 0)
(48.7306 0 0)
(49.0235 0 0)
(49.3566 0 0)
(49.6529 0 0)
(49.99 0 0)
(50.2897 0 0)
(50.631 0 0)
(50.9342 0 0)
(51.2796 0 0)
(51.5865 0 0)
(51.9362 0 0)
(52.2469 0 0)
(52.6008 0 0)
(52.9154 0 0)
(53.2738 0 0)
(53.5923 0 0)
(53.9553 0 0)
(54.2779 0 0)
(54.6455 0 0)
(54.9724 0 0)
(55.3447 0 0)
(55.6759 0 0)
(56.0532 0 0)
(56.3889 0 0)
(56.7711 0 0)
(57.1115 0 0)
(57.4989 0 0)
(57.8441 0 0)
(58.2368 0 0)
(58.5869 0 0)
(58.9852 0 0)
(59.3403 0 0)
(59.7443 0 0)
(60.1048 0 0)
(60.5146 0 0)
(60.8806 0 0)
(61.2965 0 0)
(61.6682 0 0)
(62.0905 0 0)
(62.4681 0 0)
(62.8969 0 0)
(63.2807 0 0)
(63.7164 0 0)
(64.1065 0 0)
(64.5495 0 0)
(64.9463 0 0)
(65.3968 0 0)
(65.8005 0 0)
(66.259 0 0)
(66.67 0 0)
(67.1369 0 0)
(67.5556 0 0)
(68.0314 0 0)
(68.458 0 0)
(68.9432 0 0)
(69.3785 0 0)
(69.8736 0 0)
(70.3179 0 0)
(70.8236 0 0)
(71.2777 0 0)
(71.7947 0 0)
(72.2593 0 0)
(72.7886 0 0)
(73.2645 0 0)
(73.8072 0 0)
(74.2952 0 0)
(74.8524 0 0)
(75.3539 0 0)
(75.927 0 0)
(76.4433 0 0)
(77.0341 0 0)
(77.5668 0 0)
(78.1771 0 0)
(78.7281 0 0)
(79.3601 0 0)
(79.9314 0 0)
(80.5873 0 0)
(81.1811 0 0)
(81.8633 0 0)
(82.4815 0 0)
(83.1916 0 0)
(83.8351 0 0)
(84.5731 0 0)
(85.2407 0 0)
(86.0035 0 0)
(86.6889 0 0)
(87.4657 0 0)
(88.1509 0 0)
(88.9185 0 0)
(89.5565 0 0)
(90.2624 0 0)
(90.8359 0 0)
(91.4831 0 0)
(92.0074 0 0)
(92.6175 0 0)
(93.1155 0 0)
(93.7108 0 0)
(94.2009 0 0)
(94.7962 0 0)
(95.2895 0 0)
(95.8919 0 0)
(96.3932 0 0)
(97.0047 0 0)
(97.5145 0 0)
(98.1344 0 0)
(98.6513 0 0)
(99.2781 0 0)
(99.8002 0 0)
(100.432 0 0)
(100.957 0 0)
(101.593 0 0)
(102.12 0 0)
(102.758 0 0)
(103.287 0 0)
(103.926 0 0)
(104.456 0 0)
(105.096 0 0)
(105.627 0 0)
(106.268 0 0)
(106.8 0 0)
(107.442 0 0)
(107.974 0 0)
(108.617 0 0)
(109.149 0 0)
(109.792 0 0)
(110.324 0 0)
(110.968 0 0)
(111.5 0 0)
(112.145 0 0)
(112.677 0 0)
(113.321 0 0)
(113.852 0 0)
(114.496 0 0)
(115.027 0 0)
(115.67 0 0)
(116.2 0 0)
(116.842 0 0)
(117.371 0 0)
(118.012 0 0)
(118.539 0 0)
(119.178 0 0)
(119.705 0 0)
(120.342 0 0)
(120.866 0 0)
(121.501 0 0)
(122.022 0 0)
(122.654 0 0)
(123.173 0 0)
(123.801 0 0)
(124.317 0 0)
(124.94 0 0)
(125.451 0 0)
(126.069 0 0)
(126.573 0 0)
(127.184 0 0)
(127.68 0 0)
(128.281 0 0)
(128.767 0 0)
(129.356 0 0)
(129.829 0 0)
(130.404 0 0)
(130.863 0 0)
(131.421 0 0)
(131.862 0 0)
(132.4 0 0)
(132.821 0 0)
(133.343 0 0)
(133.748 0 0)
(134.248 0 0)
(134.622 0 0)
(135.092 0 0)
(135.414 0 0)
(135.845 0 0)
(136.101 0 0)
(136.488 0 0)
(136.665 0 0)
(137.001 0 0)
(137.084 0 0)
(137.35 0 0)
(137.301 0 0)
(137.472 0 0)
(137.241 0 0)
(137.297 0 0)
(136.864 0 0)
(136.688 0 0)
(135.797 0 0)
(136.5 0 0)
)
;

boundaryField
{
    sideLeft
    {
        type            symmetryPlane;
    }
    sideRight
    {
        type            calculated;
        value           uniform (135.994 0 0);
    }
    topbottom
    {
        type            empty;
    }
    frontback
    {
        type            empty;
    }
}


// ************************************************************************* //
