/*--------------------------------*- C++ -*----------------------------------*\
| =========                 |                                                 |
| \\      /  F ield         | OpenFOAM: The Open Source CFD Toolbox           |
|  \\    /   O peration     | Version:  2.4.0                                 |
|   \\  /    A nd           | Web:      www.OpenFOAM.org                      |
|    \\/     M anipulation  |                                                 |
\*---------------------------------------------------------------------------*/
FoamFile
{
    version     2.0;
    format      ascii;
    class       volVectorField;
    location    "0.19";
    object      U.air;
}
// * * * * * * * * * * * * * * * * * * * * * * * * * * * * * * * * * * * * * //

dimensions      [0 1 -1 0 0 0 0];

internalField   nonuniform List<vector> 
1000
(
(1.4211e-13 0 0)
(6.39484e-14 0 0)
(-2.55795e-13 0 0)
(-9.23714e-14 0 0)
(-6.39477e-14 0 0)
(-2.84227e-14 0 0)
(-1.42103e-14 0 0)
(-7.10544e-14 0 0)
(-2.62901e-13 0 0)
(-3.19744e-13 0 0)
(-3.83693e-13 0 0)
(-4.47641e-13 0 0)
(-4.19221e-13 0 0)
(-1.13686e-13 0 0)
(4.26317e-14 0 0)
(9.23713e-14 0 0)
(-7.1055e-14 0 0)
(-1.06581e-13 0 0)
(2.06056e-13 0 0)
(2.41586e-13 0 0)
(2.7711e-13 0 0)
(2.20269e-13 0 0)
(4.26318e-14 0 0)
(-1.84741e-13 0 0)
(2.1316e-14 0 0)
(3.55273e-14 0 0)
(2.13163e-14 0 0)
(-1.42115e-14 0 0)
(1.27899e-13 0 0)
(1.13686e-13 0 0)
(-3.55266e-14 0 0)
(-1.63425e-13 0 0)
(-3.97904e-13 0 0)
(-4.3343e-13 0 0)
(-3.83694e-13 0 0)
(-3.12637e-13 0 0)
(-1.67174e-18 0 0)
(1.63426e-13 0 0)
(1.77635e-13 0 0)
(5.54224e-13 0 0)
(8.10018e-13 0 0)
(7.4607e-13 0 0)
(7.53175e-13 0 0)
(6.39489e-13 0 0)
(7.88702e-13 0 0)
(4.83169e-13 0 0)
(3.33955e-13 0 0)
(3.69482e-13 0 0)
(4.76064e-13 0 0)
(4.61853e-13 0 0)
(4.47642e-13 0 0)
(4.33431e-13 0 0)
(4.9738e-13 0 0)
(2.13163e-13 0 0)
(3.62377e-13 0 0)
(4.9738e-13 0 0)
(1.7053e-13 0 0)
(4.68958e-13 0 0)
(6.25278e-13 0 0)
(4.68958e-13 0 0)
(4.90275e-13 0 0)
(2.91321e-13 0 0)
(2.27374e-13 0 0)
(3.12639e-13 0 0)
(6.75015e-13 0 0)
(1.03739e-12 0 0)
(9.59232e-13 0 0)
(7.74491e-13 0 0)
(7.31859e-13 0 0)
(4.83169e-13 0 0)
(2.84217e-13 0 0)
(7.81595e-14 0 0)
(3.69483e-13 0 0)
(5.75539e-13 0 0)
(3.90799e-13 0 0)
(4.1922e-13 0 0)
(4.26325e-13 0 0)
(6.32383e-13 0 0)
(2.77112e-13 0 0)
(-6.39492e-14 0 0)
(-1.56319e-13 0 0)
(1.35003e-13 0 0)
(6.39497e-14 0 0)
(7.10443e-15 0 0)
(-3.5526e-14 0 0)
(-3.55281e-14 0 0)
(-2.84209e-14 0 0)
(1.42102e-14 0 0)
(3.55273e-14 0 0)
(2.06058e-13 0 0)
(4.26323e-14 0 0)
(-7.81597e-14 0 0)
(7.81598e-14 0 0)
(-2.34479e-13 0 0)
(-3.4106e-13 0 0)
(-3.26851e-13 0 0)
(-5.47117e-13 0 0)
(-2.06059e-13 0 0)
(-2.77111e-13 0 0)
(-4.97383e-14 0 0)
(-2.06057e-13 0 0)
(-9.23709e-14 0 0)
(-2.13163e-14 0 0)
(-8.52653e-14 0 0)
(2.27374e-13 0 0)
(2.34479e-13 0 0)
(3.19744e-13 0 0)
(2.27373e-13 0 0)
(2.41585e-13 0 0)
(1.77635e-13 0 0)
(1.27899e-13 0 0)
(5.18695e-13 0 0)
(6.82121e-13 0 0)
(6.60805e-13 0 0)
(7.10543e-13 0 0)
(7.03438e-13 0 0)
(1.00186e-12 0 0)
(6.75016e-13 0 0)
(7.53175e-13 0 0)
(1.07292e-12 0 0)
(1.1795e-12 0 0)
(1.00897e-12 0 0)
(1.3074e-12 0 0)
(1.55609e-12 0 0)
(1.67688e-12 0 0)
(1.48504e-12 0 0)
(1.5703e-12 0 0)
(1.75504e-12 0 0)
(1.97531e-12 0 0)
(1.89005e-12 0 0)
(1.7053e-12 0 0)
(1.47082e-12 0 0)
(1.47082e-12 0 0)
(1.42819e-12 0 0)
(1.41398e-12 0 0)
(1.03739e-12 0 0)
(7.81597e-13 0 0)
(8.31335e-13 0 0)
(7.03437e-13 0 0)
(8.02913e-13 0 0)
(6.32383e-13 0 0)
(5.18696e-13 0 0)
(5.82646e-13 0 0)
(5.96855e-13 0 0)
(5.32908e-13 0 0)
(7.24753e-13 0 0)
(8.95284e-13 0 0)
(7.67386e-13 0 0)
(4.47642e-13 0 0)
(5.25801e-13 0 0)
(6.18172e-13 0 0)
(6.53699e-13 0 0)
(5.68435e-13 0 0)
(6.46594e-13 0 0)
(5.96856e-13 0 0)
(4.68957e-13 0 0)
(2.77112e-13 0 0)
(1.35002e-13 0 0)
(-9.23698e-14 0 0)
(-6.39496e-14 0 0)
(-3.19743e-13 0 0)
(-3.19745e-13 0 0)
(-5.96855e-13 0 0)
(-6.11067e-13 0 0)
(-4.76063e-13 0 0)
(-3.97905e-13 0 0)
(-6.18171e-13 0 0)
(-7.17649e-13 0 0)
(-9.37916e-13 0 0)
(-8.66863e-13 0 0)
(-9.30811e-13 0 0)
(-8.59757e-13 0 0)
(-9.09494e-13 0 0)
(-1.00187e-12 0 0)
(-1.00897e-12 0 0)
(-9.87655e-13 0 0)
(-9.09494e-13 0 0)
(-5.68435e-13 0 0)
(-1.42108e-13 0 0)
(-7.10536e-15 0 0)
(1.42108e-13 0 0)
(3.33955e-13 0 0)
(5.8975e-13 0 0)
(5.40014e-13 0 0)
(6.11065e-13 0 0)
(7.46071e-13 0 0)
(7.88701e-13 0 0)
(7.74494e-13 0 0)
(7.03436e-13 0 0)
(4.90276e-13 0 0)
(6.0396e-13 0 0)
(4.47644e-13 0 0)
(3.76586e-13 0 0)
(1.98953e-13 0 0)
(3.05532e-13 0 0)
(2.77113e-13 0 0)
(4.61852e-13 0 0)
(1.77636e-13 0 0)
(2.27373e-13 0 0)
(2.77113e-13 0 0)
(3.12637e-13 0 0)
(1.56321e-13 0 0)
(1.49212e-13 0 0)
(5.68443e-14 0 0)
(5.68432e-14 0 0)
(1.42113e-14 0 0)
(3.19744e-13 0 0)
(4.61853e-13 0 0)
(2.41585e-13 0 0)
(2.84216e-14 0 0)
(2.13166e-14 0 0)
(-1.91847e-13 0 0)
(-2.34478e-13 0 0)
(-2.70007e-13 0 0)
(-2.48689e-13 0 0)
(-1.49215e-13 0 0)
(-2.13162e-13 0 0)
(6.39486e-14 0 0)
(-1.27898e-13 0 0)
(-3.12639e-13 0 0)
(-2.13163e-13 0 0)
(-2.77111e-13 0 0)
(-3.2685e-13 0 0)
(-4.9738e-14 0 0)
(-1.20792e-13 0 0)
(-1.77636e-13 0 0)
(-4.26328e-14 0 0)
(2.91323e-13 0 0)
(5.18696e-13 0 0)
(2.62901e-13 0 0)
(1.42109e-13 0 0)
(4.61852e-13 0 0)
(5.25803e-13 0 0)
(4.76062e-13 0 0)
(1.49216e-13 0 0)
(2.62899e-13 0 0)
(3.26851e-13 0 0)
(4.90273e-13 0 0)
(3.76588e-13 0 0)
(2.91323e-13 0 0)
(3.55271e-13 0 0)
(5.40012e-13 0 0)
(5.82646e-13 0 0)
(5.32906e-13 0 0)
(4.61853e-13 0 0)
(3.41061e-13 0 0)
(4.1922e-13 0 0)
(1.77636e-13 0 0)
(1.42107e-14 0 0)
(-3.2685e-13 0 0)
(-3.26849e-13 0 0)
(-1.27898e-13 0 0)
(1.91846e-13 0 0)
(7.10587e-15 0 0)
(-1.77636e-13 0 0)
(4.40537e-13 0 0)
(3.83692e-13 0 0)
(4.12116e-13 0 0)
(2.98427e-13 0 0)
(2.3448e-13 0 0)
(5.25801e-13 0 0)
(5.04486e-13 0 0)
(3.26849e-13 0 0)
(1.84741e-13 0 0)
(-3.55267e-14 0 0)
(-1.42118e-14 0 0)
(-2.41583e-13 0 0)
(-1.63426e-13 0 0)
(-2.13146e-14 0 0)
(-2.1318e-14 0 0)
(-2.06056e-13 0 0)
(-3.69484e-13 0 0)
(-3.97903e-13 0 0)
(-4.0501e-13 0 0)
(-6.11066e-13 0 0)
(-5.54224e-13 0 0)
(-3.76586e-13 0 0)
(-1.84742e-13 0 0)
(-4.12114e-13 0 0)
(-2.84218e-13 0 0)
(-9.94757e-14 0 0)
(7.81595e-14 0 0)
(4.12114e-13 0 0)
(2.91324e-13 0 0)
(1.0658e-13 0 0)
(4.97384e-14 0 0)
(-2.27373e-13 0 0)
(-2.55796e-13 0 0)
(-1.27898e-13 0 0)
(3.55275e-14 0 0)
(3.05533e-13 0 0)
(3.69483e-13 0 0)
(2.06057e-13 0 0)
(-2.84203e-14 0 0)
(2.84204e-14 0 0)
(2.06058e-13 0 0)
(6.03961e-13 0 0)
(8.88179e-13 0 0)
(1.03029e-12 0 0)
(8.59758e-13 0 0)
(1.14397e-12 0 0)
(1.00897e-12 0 0)
(1.20082e-12 0 0)
(1.28608e-12 0 0)
(1.56319e-12 0 0)
(1.79767e-12 0 0)
(1.99662e-12 0 0)
(1.9682e-12 0 0)
(2.08189e-12 0 0)
(2.42295e-12 0 0)
(2.94875e-12 0 0)
(3.1406e-12 0 0)
(3.84404e-12 0 0)
(4.60432e-12 0 0)
(5.77671e-12 0 0)
(6.98464e-12 0 0)
(8.75389e-12 0 0)
(1.15961e-11 0 0)
(1.56462e-11 0 0)
(2.20197e-11 0 0)
(3.15836e-11 0 0)
(4.54179e-11 0 0)
(6.5647e-11 0 0)
(9.5703e-11 0 0)
(1.39941e-10 0 0)
(2.04295e-10 0 0)
(2.97263e-10 0 0)
(4.32195e-10 0 0)
(6.26585e-10 0 0)
(9.06489e-10 0 0)
(1.30824e-09 0 0)
(1.88316e-09 0 0)
(2.70374e-09 0 0)
(3.87185e-09 0 0)
(5.53057e-09 0 0)
(7.87868e-09 0 0)
(1.11932e-08 0 0)
(1.58601e-08 0 0)
(2.24119e-08 0 0)
(3.15843e-08 0 0)
(4.43892e-08 0 0)
(6.22141e-08 0 0)
(8.69562e-08 0 0)
(1.21201e-07 0 0)
(1.68463e-07 0 0)
(2.335e-07 0 0)
(3.22735e-07 0 0)
(4.44813e-07 0 0)
(6.11332e-07 0 0)
(8.37795e-07 0 0)
(1.14487e-06 0 0)
(1.55999e-06 0 0)
(2.11951e-06 0 0)
(2.87136e-06 0 0)
(3.87858e-06 0 0)
(5.22378e-06 0 0)
(7.01487e-06 0 0)
(9.39226e-06 0 0)
(1.25381e-05 0 0)
(1.66877e-05 0 0)
(2.21441e-05 0 0)
(2.92964e-05 0 0)
(3.86416e-05 0 0)
(5.08133e-05 0 0)
(6.66153e-05 0 0)
(8.70639e-05 0 0)
(0.00011344 0 0)
(0.000147349 0 0)
(0.000190801 0 0)
(0.000246295 0 0)
(0.000316935 0 0)
(0.000406551 0 0)
(0.000519859 0 0)
(0.000662637 0 0)
(0.000841934 0 0)
(0.00106632 0 0)
(0.00134616 0 0)
(0.00169396 0 0)
(0.0021247 0 0)
(0.00265628 0 0)
(0.00330999 0 0)
(0.00411104 0 0)
(0.0050891 0 0)
(0.006279 0 0)
(0.00772137 0 0)
(0.00946341 0 0)
(0.0115597 0 0)
(0.0140728 0 0)
(0.0170747 0 0)
(0.0206469 0 0)
(0.0248819 0 0)
(0.0298839 0 0)
(0.0357693 0 0)
(0.042668 0 0)
(0.0507236 0 0)
(0.0600943 0 0)
(0.070953 0 0)
(0.0834878 0 0)
(0.097902 0 0)
(0.114414 0 0)
(0.133255 0 0)
(0.154673 0 0)
(0.178927 0 0)
(0.206287 0 0)
(0.237033 0 0)
(0.271455 0 0)
(0.309846 0 0)
(0.352505 0 0)
(0.39973 0 0)
(0.451819 0 0)
(0.509065 0 0)
(0.571752 0 0)
(0.640156 0 0)
(0.714538 0 0)
(0.795143 0 0)
(0.882199 0 0)
(0.975911 0 0)
(1.07646 0 0)
(1.18401 0 0)
(1.2987 0 0)
(1.42061 0 0)
(1.54984 0 0)
(1.68643 0 0)
(1.83039 0 0)
(1.98173 0 0)
(2.1404 0 0)
(2.30635 0 0)
(2.47948 0 0)
(2.65968 0 0)
(2.84682 0 0)
(3.04075 0 0)
(3.24128 0 0)
(3.44824 0 0)
(3.66142 0 0)
(3.8806 0 0)
(4.10555 0 0)
(4.33605 0 0)
(4.57185 0 0)
(4.8127 0 0)
(5.05836 0 0)
(5.30858 0 0)
(5.5631 0 0)
(5.82169 0 0)
(6.0841 0 0)
(6.35008 0 0)
(6.6194 0 0)
(6.89184 0 0)
(7.16718 0 0)
(7.44519 0 0)
(7.72567 0 0)
(8.00843 0 0)
(8.29326 0 0)
(8.58 0 0)
(8.86847 0 0)
(9.15851 0 0)
(9.44997 0 0)
(9.74269 0 0)
(10.0365 0 0)
(10.3314 0 0)
(10.6271 0 0)
(10.9237 0 0)
(11.2209 0 0)
(11.5186 0 0)
(11.8169 0 0)
(12.1156 0 0)
(12.4146 0 0)
(12.7138 0 0)
(13.0133 0 0)
(13.313 0 0)
(13.6127 0 0)
(13.9125 0 0)
(14.2123 0 0)
(14.5121 0 0)
(14.8118 0 0)
(15.1114 0 0)
(15.411 0 0)
(15.7104 0 0)
(16.0097 0 0)
(16.3088 0 0)
(16.6077 0 0)
(16.9065 0 0)
(17.2051 0 0)
(17.5034 0 0)
(17.8016 0 0)
(18.0995 0 0)
(18.3972 0 0)
(18.6947 0 0)
(18.992 0 0)
(19.2891 0 0)
(19.586 0 0)
(19.8826 0 0)
(20.1791 0 0)
(20.4753 0 0)
(20.7713 0 0)
(21.0672 0 0)
(21.3628 0 0)
(21.6583 0 0)
(21.9536 0 0)
(22.2487 0 0)
(22.5436 0 0)
(22.8383 0 0)
(23.1329 0 0)
(23.4273 0 0)
(23.7216 0 0)
(24.0157 0 0)
(24.3097 0 0)
(24.6036 0 0)
(24.8973 0 0)
(25.1909 0 0)
(25.4844 0 0)
(25.7778 0 0)
(26.0711 0 0)
(26.3642 0 0)
(26.6573 0 0)
(26.9503 0 0)
(27.2431 0 0)
(27.5359 0 0)
(27.8287 0 0)
(28.1213 0 0)
(28.4139 0 0)
(28.7064 0 0)
(28.9989 0 0)
(29.2913 0 0)
(29.5837 0 0)
(29.876 0 0)
(30.1682 0 0)
(30.4605 0 0)
(30.7527 0 0)
(31.0448 0 0)
(31.337 0 0)
(31.6291 0 0)
(31.9212 0 0)
(32.2132 0 0)
(32.5053 0 0)
(32.7973 0 0)
(33.0894 0 0)
(33.3814 0 0)
(33.6734 0 0)
(33.9654 0 0)
(34.2575 0 0)
(34.5495 0 0)
(34.8415 0 0)
(35.1336 0 0)
(35.4256 0 0)
(35.7177 0 0)
(36.0098 0 0)
(36.3019 0 0)
(36.594 0 0)
(36.8861 0 0)
(37.1783 0 0)
(37.4705 0 0)
(37.7627 0 0)
(38.0549 0 0)
(38.3472 0 0)
(38.6395 0 0)
(38.9318 0 0)
(39.2242 0 0)
(39.5166 0 0)
(39.8091 0 0)
(40.1016 0 0)
(40.3941 0 0)
(40.6867 0 0)
(40.9794 0 0)
(41.272 0 0)
(41.5648 0 0)
(41.8576 0 0)
(42.1504 0 0)
(42.4433 0 0)
(42.7363 0 0)
(43.0293 0 0)
(43.3224 0 0)
(43.6156 0 0)
(43.9089 0 0)
(44.2022 0 0)
(44.4956 0 0)
(44.789 0 0)
(45.0826 0 0)
(45.3762 0 0)
(45.6699 0 0)
(45.9637 0 0)
(46.2576 0 0)
(46.5516 0 0)
(46.8457 0 0)
(47.1399 0 0)
(47.4342 0 0)
(47.7286 0 0)
(48.0232 0 0)
(48.3178 0 0)
(48.6125 0 0)
(48.9074 0 0)
(49.2024 0 0)
(49.4975 0 0)
(49.7927 0 0)
(50.0881 0 0)
(50.3836 0 0)
(50.6792 0 0)
(50.975 0 0)
(51.2709 0 0)
(51.5669 0 0)
(51.8631 0 0)
(52.1595 0 0)
(52.456 0 0)
(52.7527 0 0)
(53.0495 0 0)
(53.3465 0 0)
(53.6436 0 0)
(53.9409 0 0)
(54.2384 0 0)
(54.5361 0 0)
(54.8339 0 0)
(55.1319 0 0)
(55.4301 0 0)
(55.7285 0 0)
(56.027 0 0)
(56.3258 0 0)
(56.6247 0 0)
(56.9238 0 0)
(57.2231 0 0)
(57.5227 0 0)
(57.8224 0 0)
(58.1223 0 0)
(58.4224 0 0)
(58.7228 0 0)
(59.0233 0 0)
(59.3241 0 0)
(59.6251 0 0)
(59.9263 0 0)
(60.2277 0 0)
(60.5294 0 0)
(60.8312 0 0)
(61.1334 0 0)
(61.4357 0 0)
(61.7383 0 0)
(62.0411 0 0)
(62.3441 0 0)
(62.6474 0 0)
(62.951 0 0)
(63.2548 0 0)
(63.5588 0 0)
(63.8631 0 0)
(64.1677 0 0)
(64.4725 0 0)
(64.7776 0 0)
(65.083 0 0)
(65.3886 0 0)
(65.6945 0 0)
(66.0007 0 0)
(66.3071 0 0)
(66.6139 0 0)
(66.9209 0 0)
(67.2282 0 0)
(67.5358 0 0)
(67.8438 0 0)
(68.152 0 0)
(68.4605 0 0)
(68.7693 0 0)
(69.0785 0 0)
(69.3879 0 0)
(69.6977 0 0)
(70.0078 0 0)
(70.3182 0 0)
(70.6289 0 0)
(70.94 0 0)
(71.2514 0 0)
(71.5632 0 0)
(71.8753 0 0)
(72.1877 0 0)
(72.5005 0 0)
(72.8137 0 0)
(73.1272 0 0)
(73.4411 0 0)
(73.7553 0 0)
(74.0699 0 0)
(74.3849 0 0)
(74.7003 0 0)
(75.0161 0 0)
(75.3322 0 0)
(75.6487 0 0)
(75.9657 0 0)
(76.283 0 0)
(76.6007 0 0)
(76.9189 0 0)
(77.2374 0 0)
(77.5564 0 0)
(77.8758 0 0)
(78.1956 0 0)
(78.5158 0 0)
(78.8365 0 0)
(79.1576 0 0)
(79.4792 0 0)
(79.8012 0 0)
(80.1236 0 0)
(80.4465 0 0)
(80.7699 0 0)
(81.0937 0 0)
(81.418 0 0)
(81.7428 0 0)
(82.0681 0 0)
(82.3939 0 0)
(82.7201 0 0)
(83.0469 0 0)
(83.3742 0 0)
(83.702 0 0)
(84.0302 0 0)
(84.3591 0 0)
(84.6883 0 0)
(85.0184 0 0)
(85.3485 0 0)
(85.6798 0 0)
(86.0108 0 0)
(86.3436 0 0)
(86.6752 0 0)
(87.0098 0 0)
(87.3417 0 0)
(87.6785 0 0)
(88.0101 0 0)
(88.3501 0 0)
(88.6805 0 0)
(89.0245 0 0)
(89.3529 0 0)
(89.702 0 0)
(90.0272 0 0)
(90.3823 0 0)
(90.704 0 0)
(91.065 0 0)
(91.3838 0 0)
(91.7495 0 0)
(92.0675 0 0)
(92.435 0 0)
(92.7562 0 0)
(93.1208 0 0)
(93.4506 0 0)
(93.8062 0 0)
(94.1511 0 0)
(94.4912 0 0)
(94.8577 0 0)
(95.1764 0 0)
(95.5697 0 0)
(95.8632 0 0)
(96.2855 0 0)
(96.5534 0 0)
(97.0026 0 0)
(97.2495 0 0)
(97.7181 0 0)
(97.9547 0 0)
(98.4301 0 0)
(98.6683 0 0)
(99.1449 0 0)
(99.3846 0 0)
(99.8643 0 0)
(100.105 0 0)
(100.586 0 0)
(100.828 0 0)
(101.313 0 0)
(101.556 0 0)
(102.042 0 0)
(102.287 0 0)
(102.776 0 0)
(103.022 0 0)
(103.514 0 0)
(103.761 0 0)
(104.256 0 0)
(104.504 0 0)
(105.001 0 0)
(105.251 0 0)
(105.751 0 0)
(106.003 0 0)
(106.506 0 0)
(106.759 0 0)
(107.265 0 0)
(107.522 0 0)
(108.024 0 0)
(108.294 0 0)
(108.784 0 0)
(109.076 0 0)
(109.544 0 0)
(109.866 0 0)
(110.308 0 0)
(110.66 0 0)
(111.081 0 0)
(111.454 0 0)
(111.865 0 0)
(112.249 0 0)
(112.658 0 0)
(113.046 0 0)
(113.459 0 0)
(113.849 0 0)
(114.264 0 0)
(114.659 0 0)
(115.076 0 0)
(115.475 0 0)
(115.894 0 0)
(116.297 0 0)
(116.718 0 0)
(117.125 0 0)
(117.55 0 0)
(117.961 0 0)
(118.387 0 0)
(118.804 0 0)
(119.232 0 0)
(119.654 0 0)
(120.085 0 0)
(120.511 0 0)
(120.947 0 0)
(121.376 0 0)
(121.815 0 0)
(122.25 0 0)
(122.692 0 0)
(123.132 0 0)
(123.578 0 0)
(124.022 0 0)
(124.472 0 0)
(124.921 0 0)
(125.376 0 0)
(125.83 0 0)
(126.289 0 0)
(126.75 0 0)
(127.211 0 0)
(127.68 0 0)
(128.143 0 0)
(128.622 0 0)
(129.085 0 0)
(129.574 0 0)
(130.039 0 0)
(130.538 0 0)
(131.004 0 0)
(131.514 0 0)
(131.982 0 0)
(132.502 0 0)
(132.974 0 0)
(133.503 0 0)
(133.978 0 0)
(134.517 0 0)
(134.997 0 0)
(135.546 0 0)
(136.031 0 0)
(136.59 0 0)
(137.081 0 0)
(137.649 0 0)
(138.147 0 0)
(138.725 0 0)
(139.23 0 0)
(139.819 0 0)
(140.329 0 0)
(140.933 0 0)
(141.448 0 0)
(142.066 0 0)
(142.587 0 0)
(143.219 0 0)
(143.749 0 0)
(144.394 0 0)
(144.935 0 0)
(145.591 0 0)
(146.146 0 0)
(146.811 0 0)
(147.385 0 0)
(148.057 0 0)
(148.654 0 0)
(149.331 0 0)
(149.952 0 0)
(150.636 0 0)
(151.282 0 0)
(151.977 0 0)
(152.646 0 0)
(153.358 0 0)
(154.047 0 0)
(154.779 0 0)
(155.487 0 0)
(156.239 0 0)
(156.973 0 0)
(157.743 0 0)
(158.518 0 0)
(159.3 0 0)
(160.129 0 0)
(160.918 0 0)
(161.809 0 0)
(162.599 0 0)
(163.555 0 0)
(164.355 0 0)
(165.381 0 0)
(166.205 0 0)
(167.311 0 0)
(168.171 0 0)
(169.361 0 0)
(170.263 0 0)
(171.543 0 0)
(172.498 0 0)
(173.879 0 0)
(174.908 0 0)
(176.407 0 0)
(177.536 0 0)
(179.172 0 0)
(180.425 0 0)
(182.214 0 0)
(183.61 0 0)
(185.563 0 0)
(187.116 0 0)
(189.234 0 0)
(190.945 0 0)
(193.199 0 0)
(195.029 0 0)
(197.318 0 0)
(199.073 0 0)
(201.137 0 0)
(202.68 0 0)
(204.442 0 0)
(205.744 0 0)
(207.216 0 0)
(208.303 0 0)
(209.544 0 0)
(210.468 0 0)
(211.555 0 0)
(212.376 0 0)
(213.388 0 0)
(214.161 0 0)
(215.148 0 0)
(215.904 0 0)
(216.898 0 0)
(217.669 0 0)
(218.7 0 0)
(219.516 0 0)
(220.593 0 0)
(221.453 0 0)
(222.566 0 0)
(223.46 0 0)
(224.603 0 0)
(225.527 0 0)
(226.692 0 0)
(227.636 0 0)
(228.812 0 0)
(229.761 0 0)
(230.934 0 0)
(231.882 0 0)
(233.048 0 0)
(233.992 0 0)
(235.148 0 0)
(236.087 0 0)
(237.231 0 0)
(238.164 0 0)
(239.295 0 0)
(240.226 0 0)
(241.342 0 0)
(242.275 0 0)
(243.376 0 0)
(244.316 0 0)
(245.4 0 0)
(246.35 0 0)
(247.417 0 0)
(248.378 0 0)
(249.428 0 0)
(250.401 0 0)
(251.436 0 0)
(252.419 0 0)
(253.441 0 0)
(254.431 0 0)
(255.441 0 0)
(256.436 0 0)
(257.437 0 0)
(258.437 0 0)
(259.426 0 0)
(260.431 0 0)
(261.408 0 0)
(262.418 0 0)
(263.381 0 0)
(264.397 0 0)
(265.347 0 0)
(266.368 0 0)
(267.303 0 0)
(268.33 0 0)
(269.249 0 0)
(270.283 0 0)
(271.185 0 0)
(272.226 0 0)
(273.113 0 0)
(274.158 0 0)
(275.029 0 0)
(276.079 0 0)
(276.941 0 0)
(277.989 0 0)
(278.838 0 0)
(279.883 0 0)
(280.73 0 0)
(281.774 0 0)
(282.613 0 0)
(283.644 0 0)
(284.468 0 0)
(285.507 0 0)
(286.321 0 0)
(287.369 0 0)
(288.177 0 0)
(289.2 0 0)
(289.97 0 0)
(290.988 0 0)
(291.733 0 0)
(292.786 0 0)
(293.63 0 0)
(294.806 0 0)
(295.557 0 0)
(294.664 0 0)
(294.831 0 0)
)
;

boundaryField
{
    sideLeft
    {
        type            symmetryPlane;
    }
    sideRight
    {
        type            myWaveTransmissive;
        phi             phi.air;
        rho             rho.air;
        psi             thermo:psi.air;
        gamma           1.4;
        fieldInf        (0 0 0);
        lInf            10;
        value           uniform (293.838 0 0);
    }
    topbottom
    {
        type            empty;
    }
    frontback
    {
        type            empty;
    }
}


// ************************************************************************* //
