/*--------------------------------*- C++ -*----------------------------------*\
| =========                 |                                                 |
| \\      /  F ield         | OpenFOAM: The Open Source CFD Toolbox           |
|  \\    /   O peration     | Version:  2.4.0                                 |
|   \\  /    A nd           | Web:      www.OpenFOAM.org                      |
|    \\/     M anipulation  |                                                 |
\*---------------------------------------------------------------------------*/
FoamFile
{
    version     2.0;
    format      ascii;
    class       volVectorField;
    location    "0.19";
    object      U.water;
}
// * * * * * * * * * * * * * * * * * * * * * * * * * * * * * * * * * * * * * //

dimensions      [0 1 -1 0 0 0 0];

internalField   nonuniform List<vector> 
1000
(
(1.06583e-13 0 0)
(7.10494e-15 0 0)
(-2.41584e-13 0 0)
(-1.42117e-14 0 0)
(-4.26314e-14 0 0)
(-3.55282e-14 0 0)
(5.65811e-19 0 0)
(-9.23707e-14 0 0)
(-2.91323e-13 0 0)
(-3.55272e-13 0 0)
(-3.97904e-13 0 0)
(-4.40536e-13 0 0)
(-4.47643e-13 0 0)
(-1.13686e-13 0 0)
(7.81589e-14 0 0)
(1.20793e-13 0 0)
(-4.26333e-14 0 0)
(-1.06581e-13 0 0)
(1.8474e-13 0 0)
(2.27375e-13 0 0)
(2.55794e-13 0 0)
(2.41586e-13 0 0)
(4.97373e-14 0 0)
(-1.42108e-13 0 0)
(3.55269e-14 0 0)
(-3.5527e-14 0 0)
(7.10546e-15 0 0)
(4.2632e-14 0 0)
(1.49215e-13 0 0)
(4.26316e-14 0 0)
(-4.97375e-14 0 0)
(-1.35003e-13 0 0)
(-4.0501e-13 0 0)
(-4.83168e-13 0 0)
(-3.41062e-13 0 0)
(-2.41583e-13 0 0)
(-3.55288e-14 0 0)
(1.70531e-13 0 0)
(1.98951e-13 0 0)
(5.6133e-13 0 0)
(8.02913e-13 0 0)
(7.17649e-13 0 0)
(7.4607e-13 0 0)
(6.25278e-13 0 0)
(7.95808e-13 0 0)
(4.76064e-13 0 0)
(3.2685e-13 0 0)
(3.69482e-13 0 0)
(4.83169e-13 0 0)
(5.04485e-13 0 0)
(4.40537e-13 0 0)
(4.12115e-13 0 0)
(5.25802e-13 0 0)
(2.06058e-13 0 0)
(3.2685e-13 0 0)
(4.47642e-13 0 0)
(1.7053e-13 0 0)
(5.18696e-13 0 0)
(6.11067e-13 0 0)
(4.33431e-13 0 0)
(4.8317e-13 0 0)
(3.5527e-13 0 0)
(2.55796e-13 0 0)
(2.70007e-13 0 0)
(7.10542e-13 0 0)
(1.10134e-12 0 0)
(9.37916e-13 0 0)
(7.38964e-13 0 0)
(7.10543e-13 0 0)
(4.83169e-13 0 0)
(2.84217e-13 0 0)
(6.39486e-14 0 0)
(3.62377e-13 0 0)
(5.68434e-13 0 0)
(4.40537e-13 0 0)
(4.33431e-13 0 0)
(3.69482e-13 0 0)
(5.82645e-13 0 0)
(2.91323e-13 0 0)
(-1.42112e-14 0 0)
(-9.94755e-14 0 0)
(1.42108e-13 0 0)
(6.39497e-14 0 0)
(2.84207e-14 0 0)
(-8.5264e-14 0 0)
(-7.10553e-14 0 0)
(-2.84209e-14 0 0)
(4.26319e-14 0 0)
(1.36746e-19 0 0)
(1.7053e-13 0 0)
(4.97377e-14 0 0)
(-8.52651e-14 0 0)
(1.06582e-13 0 0)
(-2.34479e-13 0 0)
(-3.62376e-13 0 0)
(-3.26851e-13 0 0)
(-5.11589e-13 0 0)
(-2.06059e-13 0 0)
(-3.5527e-13 0 0)
(-7.10546e-14 0 0)
(-2.20268e-13 0 0)
(-5.68437e-14 0 0)
(7.81597e-14 0 0)
(-4.26328e-14 0 0)
(2.34479e-13 0 0)
(1.98952e-13 0 0)
(2.55795e-13 0 0)
(2.20268e-13 0 0)
(2.84218e-13 0 0)
(1.84741e-13 0 0)
(9.9477e-14 0 0)
(5.25801e-13 0 0)
(7.10543e-13 0 0)
(6.25278e-13 0 0)
(7.03437e-13 0 0)
(7.74492e-13 0 0)
(1.03029e-12 0 0)
(6.75016e-13 0 0)
(7.74491e-13 0 0)
(1.08713e-12 0 0)
(1.16529e-12 0 0)
(1.01608e-12 0 0)
(1.27187e-12 0 0)
(1.49925e-12 0 0)
(1.69109e-12 0 0)
(1.55609e-12 0 0)
(1.58451e-12 0 0)
(1.76215e-12 0 0)
(1.99662e-12 0 0)
(1.86162e-12 0 0)
(1.71241e-12 0 0)
(1.42109e-12 0 0)
(1.45661e-12 0 0)
(1.4353e-12 0 0)
(1.35714e-12 0 0)
(1.02318e-12 0 0)
(8.10019e-13 0 0)
(8.52651e-13 0 0)
(6.96332e-13 0 0)
(7.95808e-13 0 0)
(6.25278e-13 0 0)
(5.25801e-13 0 0)
(5.96856e-13 0 0)
(5.47117e-13 0 0)
(5.32908e-13 0 0)
(7.6028e-13 0 0)
(8.73968e-13 0 0)
(7.4607e-13 0 0)
(4.83169e-13 0 0)
(5.32907e-13 0 0)
(5.89751e-13 0 0)
(6.60805e-13 0 0)
(5.68435e-13 0 0)
(6.6791e-13 0 0)
(6.39489e-13 0 0)
(4.54747e-13 0 0)
(2.41585e-13 0 0)
(1.35002e-13 0 0)
(-9.94752e-14 0 0)
(-7.1055e-14 0 0)
(-3.05532e-13 0 0)
(-3.1264e-13 0 0)
(-6.32382e-13 0 0)
(-6.11067e-13 0 0)
(-4.40536e-13 0 0)
(-3.62378e-13 0 0)
(-5.96855e-13 0 0)
(-7.24755e-13 0 0)
(-9.87654e-13 0 0)
(-9.16601e-13 0 0)
(-8.95283e-13 0 0)
(-8.10019e-13 0 0)
(-8.95283e-13 0 0)
(-1.01608e-12 0 0)
(-1.00186e-12 0 0)
(-9.73445e-13 0 0)
(-9.37915e-13 0 0)
(-6.537e-13 0 0)
(-1.7053e-13 0 0)
(4.26326e-14 0 0)
(1.77636e-13 0 0)
(3.41061e-13 0 0)
(6.32382e-13 0 0)
(6.03962e-13 0 0)
(6.11065e-13 0 0)
(7.17649e-13 0 0)
(7.67385e-13 0 0)
(6.60807e-13 0 0)
(6.53698e-13 0 0)
(5.75541e-13 0 0)
(6.32381e-13 0 0)
(4.54749e-13 0 0)
(3.76586e-13 0 0)
(1.98953e-13 0 0)
(3.26848e-13 0 0)
(2.77113e-13 0 0)
(4.61852e-13 0 0)
(1.63425e-13 0 0)
(1.98951e-13 0 0)
(2.91324e-13 0 0)
(2.55794e-13 0 0)
(1.35005e-13 0 0)
(1.84739e-13 0 0)
(5.68443e-14 0 0)
(7.81595e-14 0 0)
(7.10547e-14 0 0)
(3.19744e-13 0 0)
(4.1922e-13 0 0)
(2.41585e-13 0 0)
(2.13161e-14 0 0)
(3.55274e-14 0 0)
(-1.91847e-13 0 0)
(-2.13162e-13 0 0)
(-2.55796e-13 0 0)
(-2.70005e-13 0 0)
(-1.5632e-13 0 0)
(-1.84741e-13 0 0)
(2.84215e-14 0 0)
(-2.13163e-13 0 0)
(-3.05533e-13 0 0)
(-2.27374e-13 0 0)
(-2.84216e-13 0 0)
(-3.19745e-13 0 0)
(-4.26326e-14 0 0)
(-1.06581e-13 0 0)
(-1.63425e-13 0 0)
(-2.13165e-14 0 0)
(2.98428e-13 0 0)
(4.76063e-13 0 0)
(2.13163e-13 0 0)
(1.70531e-13 0 0)
(4.83169e-13 0 0)
(5.75541e-13 0 0)
(4.76062e-13 0 0)
(9.94777e-14 0 0)
(2.48688e-13 0 0)
(3.83694e-13 0 0)
(5.258e-13 0 0)
(2.62902e-13 0 0)
(2.62901e-13 0 0)
(4.12115e-13 0 0)
(5.40012e-13 0 0)
(5.54224e-13 0 0)
(5.75539e-13 0 0)
(4.83169e-13 0 0)
(3.2685e-13 0 0)
(4.40536e-13 0 0)
(1.84741e-13 0 0)
(2.84215e-14 0 0)
(-3.33955e-13 0 0)
(-3.33955e-13 0 0)
(-1.42109e-13 0 0)
(1.49214e-13 0 0)
(4.41767e-19 0 0)
(-1.91847e-13 0 0)
(4.40537e-13 0 0)
(3.90798e-13 0 0)
(4.19221e-13 0 0)
(3.26849e-13 0 0)
(2.48691e-13 0 0)
(5.40012e-13 0 0)
(4.76064e-13 0 0)
(3.62377e-13 0 0)
(2.41584e-13 0 0)
(-4.97375e-14 0 0)
(-2.13172e-14 0 0)
(-2.34478e-13 0 0)
(-1.84743e-13 0 0)
(-5.68417e-14 0 0)
(-7.10711e-15 0 0)
(-1.8474e-13 0 0)
(-4.19222e-13 0 0)
(-4.12114e-13 0 0)
(-3.41061e-13 0 0)
(-5.8975e-13 0 0)
(-6.03962e-13 0 0)
(-4.05008e-13 0 0)
(-1.35004e-13 0 0)
(-3.12638e-13 0 0)
(-2.41585e-13 0 0)
(-1.35003e-13 0 0)
(4.26323e-14 0 0)
(3.90798e-13 0 0)
(2.55797e-13 0 0)
(1.42107e-13 0 0)
(2.13167e-14 0 0)
(-2.55795e-13 0 0)
(-1.77636e-13 0 0)
(-1.06582e-13 0 0)
(3.55275e-14 0 0)
(2.91322e-13 0 0)
(3.83693e-13 0 0)
(2.27373e-13 0 0)
(-4.97366e-14 0 0)
(-7.10677e-15 0 0)
(1.84742e-13 0 0)
(5.75539e-13 0 0)
(8.95284e-13 0 0)
(1.07292e-12 0 0)
(8.95285e-13 0 0)
(1.15108e-12 0 0)
(9.59234e-13 0 0)
(1.1795e-12 0 0)
(1.29319e-12 0 0)
(1.54898e-12 0 0)
(1.80478e-12 0 0)
(2.01794e-12 0 0)
(1.9611e-12 0 0)
(2.0961e-12 0 0)
(2.43006e-12 0 0)
(2.91322e-12 0 0)
(3.14771e-12 0 0)
(3.78719e-12 0 0)
(4.54747e-12 0 0)
(5.81224e-12 0 0)
(6.99885e-12 0 0)
(8.7681e-12 0 0)
(1.15392e-11 0 0)
(1.55325e-11 0 0)
(2.19487e-11 0 0)
(3.15339e-11 0 0)
(4.53255e-11 0 0)
(6.55547e-11 0 0)
(9.54543e-11 0 0)
(1.39551e-10 0 0)
(2.03791e-10 0 0)
(2.96495e-10 0 0)
(4.31164e-10 0 0)
(6.25093e-10 0 0)
(9.04372e-10 0 0)
(1.30523e-09 0 0)
(1.87889e-09 0 0)
(2.6977e-09 0 0)
(3.86336e-09 0 0)
(5.5186e-09 0 0)
(7.86184e-09 0 0)
(1.11697e-08 0 0)
(1.58273e-08 0 0)
(2.23664e-08 0 0)
(3.15211e-08 0 0)
(4.43019e-08 0 0)
(6.20939e-08 0 0)
(8.67911e-08 0 0)
(1.20975e-07 0 0)
(1.68155e-07 0 0)
(2.33079e-07 0 0)
(3.22164e-07 0 0)
(4.44041e-07 0 0)
(6.1029e-07 0 0)
(8.36395e-07 0 0)
(1.14299e-06 0 0)
(1.55749e-06 0 0)
(2.11617e-06 0 0)
(2.86692e-06 0 0)
(3.8727e-06 0 0)
(5.21603e-06 0 0)
(7.00468e-06 0 0)
(9.37891e-06 0 0)
(1.25206e-05 0 0)
(1.66649e-05 0 0)
(2.21147e-05 0 0)
(2.92583e-05 0 0)
(3.85925e-05 0 0)
(5.07502e-05 0 0)
(6.65345e-05 0 0)
(8.69609e-05 0 0)
(0.000113309 0 0)
(0.000147183 0 0)
(0.000190591 0 0)
(0.000246032 0 0)
(0.000316605 0 0)
(0.000406139 0 0)
(0.000519347 0 0)
(0.000662001 0 0)
(0.00084115 0 0)
(0.00106536 0 0)
(0.00134498 0 0)
(0.00169252 0 0)
(0.00212294 0 0)
(0.00265415 0 0)
(0.00330743 0 0)
(0.00410795 0 0)
(0.00508541 0 0)
(0.0062746 0 0)
(0.00771615 0 0)
(0.00945723 0 0)
(0.0115524 0 0)
(0.0140643 0 0)
(0.0170647 0 0)
(0.0206354 0 0)
(0.0248686 0 0)
(0.0298685 0 0)
(0.0357516 0 0)
(0.0426478 0 0)
(0.0507007 0 0)
(0.0600683 0 0)
(0.0709238 0 0)
(0.0834551 0 0)
(0.0978655 0 0)
(0.114373 0 0)
(0.13321 0 0)
(0.154624 0 0)
(0.178873 0 0)
(0.206228 0 0)
(0.236969 0 0)
(0.271386 0 0)
(0.309772 0 0)
(0.352426 0 0)
(0.399646 0 0)
(0.451731 0 0)
(0.508972 0 0)
(0.571655 0 0)
(0.640055 0 0)
(0.714433 0 0)
(0.795035 0 0)
(0.882088 0 0)
(0.975798 0 0)
(1.07635 0 0)
(1.1839 0 0)
(1.29858 0 0)
(1.42049 0 0)
(1.54972 0 0)
(1.68631 0 0)
(1.83028 0 0)
(1.98162 0 0)
(2.1403 0 0)
(2.30624 0 0)
(2.47938 0 0)
(2.65958 0 0)
(2.84673 0 0)
(3.04066 0 0)
(3.2412 0 0)
(3.44816 0 0)
(3.66135 0 0)
(3.88053 0 0)
(4.10549 0 0)
(4.33599 0 0)
(4.5718 0 0)
(4.81265 0 0)
(5.05832 0 0)
(5.30854 0 0)
(5.56307 0 0)
(5.82167 0 0)
(6.08407 0 0)
(6.35006 0 0)
(6.61939 0 0)
(6.89184 0 0)
(7.16717 0 0)
(7.44519 0 0)
(7.72567 0 0)
(8.00843 0 0)
(8.29327 0 0)
(8.58002 0 0)
(8.86849 0 0)
(9.15853 0 0)
(9.44999 0 0)
(9.74271 0 0)
(10.0366 0 0)
(10.3314 0 0)
(10.6272 0 0)
(10.9237 0 0)
(11.2209 0 0)
(11.5187 0 0)
(11.8169 0 0)
(12.1156 0 0)
(12.4146 0 0)
(12.7139 0 0)
(13.0134 0 0)
(13.313 0 0)
(13.6127 0 0)
(13.9125 0 0)
(14.2123 0 0)
(14.5121 0 0)
(14.8118 0 0)
(15.1115 0 0)
(15.411 0 0)
(15.7105 0 0)
(16.0097 0 0)
(16.3088 0 0)
(16.6078 0 0)
(16.9065 0 0)
(17.2051 0 0)
(17.5034 0 0)
(17.8016 0 0)
(18.0995 0 0)
(18.3973 0 0)
(18.6948 0 0)
(18.9921 0 0)
(19.2891 0 0)
(19.586 0 0)
(19.8827 0 0)
(20.1791 0 0)
(20.4753 0 0)
(20.7714 0 0)
(21.0672 0 0)
(21.3629 0 0)
(21.6583 0 0)
(21.9536 0 0)
(22.2487 0 0)
(22.5436 0 0)
(22.8383 0 0)
(23.1329 0 0)
(23.4274 0 0)
(23.7216 0 0)
(24.0158 0 0)
(24.3098 0 0)
(24.6036 0 0)
(24.8974 0 0)
(25.191 0 0)
(25.4844 0 0)
(25.7778 0 0)
(26.0711 0 0)
(26.3642 0 0)
(26.6573 0 0)
(26.9503 0 0)
(27.2432 0 0)
(27.536 0 0)
(27.8287 0 0)
(28.1213 0 0)
(28.4139 0 0)
(28.7065 0 0)
(28.9989 0 0)
(29.2913 0 0)
(29.5837 0 0)
(29.876 0 0)
(30.1683 0 0)
(30.4605 0 0)
(30.7527 0 0)
(31.0448 0 0)
(31.337 0 0)
(31.6291 0 0)
(31.9212 0 0)
(32.2132 0 0)
(32.5053 0 0)
(32.7973 0 0)
(33.0894 0 0)
(33.3814 0 0)
(33.6734 0 0)
(33.9655 0 0)
(34.2575 0 0)
(34.5495 0 0)
(34.8415 0 0)
(35.1336 0 0)
(35.4256 0 0)
(35.7177 0 0)
(36.0098 0 0)
(36.3019 0 0)
(36.594 0 0)
(36.8861 0 0)
(37.1783 0 0)
(37.4705 0 0)
(37.7627 0 0)
(38.0549 0 0)
(38.3472 0 0)
(38.6395 0 0)
(38.9319 0 0)
(39.2242 0 0)
(39.5166 0 0)
(39.8091 0 0)
(40.1016 0 0)
(40.3941 0 0)
(40.6867 0 0)
(40.9794 0 0)
(41.2721 0 0)
(41.5648 0 0)
(41.8576 0 0)
(42.1504 0 0)
(42.4434 0 0)
(42.7363 0 0)
(43.0294 0 0)
(43.3225 0 0)
(43.6156 0 0)
(43.9089 0 0)
(44.2022 0 0)
(44.4956 0 0)
(44.789 0 0)
(45.0826 0 0)
(45.3762 0 0)
(45.67 0 0)
(45.9638 0 0)
(46.2577 0 0)
(46.5517 0 0)
(46.8458 0 0)
(47.14 0 0)
(47.4343 0 0)
(47.7287 0 0)
(48.0232 0 0)
(48.3178 0 0)
(48.6125 0 0)
(48.9074 0 0)
(49.2024 0 0)
(49.4975 0 0)
(49.7927 0 0)
(50.0881 0 0)
(50.3836 0 0)
(50.6792 0 0)
(50.975 0 0)
(51.2709 0 0)
(51.5669 0 0)
(51.8632 0 0)
(52.1595 0 0)
(52.456 0 0)
(52.7527 0 0)
(53.0495 0 0)
(53.3465 0 0)
(53.6436 0 0)
(53.9409 0 0)
(54.2384 0 0)
(54.5361 0 0)
(54.8339 0 0)
(55.1319 0 0)
(55.4301 0 0)
(55.7285 0 0)
(56.027 0 0)
(56.3258 0 0)
(56.6247 0 0)
(56.9238 0 0)
(57.2231 0 0)
(57.5227 0 0)
(57.8224 0 0)
(58.1223 0 0)
(58.4225 0 0)
(58.7228 0 0)
(59.0233 0 0)
(59.3241 0 0)
(59.6251 0 0)
(59.9263 0 0)
(60.2277 0 0)
(60.5294 0 0)
(60.8313 0 0)
(61.1334 0 0)
(61.4357 0 0)
(61.7383 0 0)
(62.0411 0 0)
(62.3441 0 0)
(62.6474 0 0)
(62.951 0 0)
(63.2548 0 0)
(63.5588 0 0)
(63.8631 0 0)
(64.1677 0 0)
(64.4725 0 0)
(64.7776 0 0)
(65.083 0 0)
(65.3886 0 0)
(65.6945 0 0)
(66.0007 0 0)
(66.3071 0 0)
(66.6139 0 0)
(66.9209 0 0)
(67.2282 0 0)
(67.5359 0 0)
(67.8438 0 0)
(68.152 0 0)
(68.4605 0 0)
(68.7693 0 0)
(69.0785 0 0)
(69.3879 0 0)
(69.6977 0 0)
(70.0078 0 0)
(70.3182 0 0)
(70.6289 0 0)
(70.94 0 0)
(71.2514 0 0)
(71.5632 0 0)
(71.8753 0 0)
(72.1877 0 0)
(72.5005 0 0)
(72.8137 0 0)
(73.1272 0 0)
(73.4411 0 0)
(73.7553 0 0)
(74.07 0 0)
(74.3849 0 0)
(74.7003 0 0)
(75.0161 0 0)
(75.3322 0 0)
(75.6487 0 0)
(75.9657 0 0)
(76.283 0 0)
(76.6007 0 0)
(76.9189 0 0)
(77.2374 0 0)
(77.5564 0 0)
(77.8758 0 0)
(78.1956 0 0)
(78.5158 0 0)
(78.8365 0 0)
(79.1576 0 0)
(79.4792 0 0)
(79.8012 0 0)
(80.1236 0 0)
(80.4465 0 0)
(80.7699 0 0)
(81.0937 0 0)
(81.4181 0 0)
(81.7428 0 0)
(82.0681 0 0)
(82.3939 0 0)
(82.7201 0 0)
(83.0469 0 0)
(83.3742 0 0)
(83.702 0 0)
(84.0302 0 0)
(84.3591 0 0)
(84.6883 0 0)
(85.0184 0 0)
(85.3485 0 0)
(85.6798 0 0)
(86.0109 0 0)
(86.3436 0 0)
(86.6752 0 0)
(87.0098 0 0)
(87.3417 0 0)
(87.6786 0 0)
(88.0101 0 0)
(88.3501 0 0)
(88.6805 0 0)
(89.0245 0 0)
(89.3529 0 0)
(89.702 0 0)
(90.0272 0 0)
(90.3823 0 0)
(90.704 0 0)
(91.065 0 0)
(91.3838 0 0)
(91.7495 0 0)
(92.0675 0 0)
(92.435 0 0)
(92.7562 0 0)
(93.1208 0 0)
(93.4506 0 0)
(93.8062 0 0)
(94.1511 0 0)
(94.4912 0 0)
(94.8577 0 0)
(95.1764 0 0)
(95.5697 0 0)
(95.8632 0 0)
(96.2855 0 0)
(96.5534 0 0)
(97.0026 0 0)
(97.2495 0 0)
(97.7181 0 0)
(97.9547 0 0)
(98.4301 0 0)
(98.6683 0 0)
(99.1449 0 0)
(99.3846 0 0)
(99.8643 0 0)
(100.105 0 0)
(100.586 0 0)
(100.828 0 0)
(101.313 0 0)
(101.556 0 0)
(102.042 0 0)
(102.287 0 0)
(102.776 0 0)
(103.022 0 0)
(103.514 0 0)
(103.761 0 0)
(104.256 0 0)
(104.504 0 0)
(105.001 0 0)
(105.251 0 0)
(105.751 0 0)
(106.003 0 0)
(106.506 0 0)
(106.759 0 0)
(107.265 0 0)
(107.522 0 0)
(108.024 0 0)
(108.294 0 0)
(108.784 0 0)
(109.076 0 0)
(109.544 0 0)
(109.866 0 0)
(110.308 0 0)
(110.66 0 0)
(111.081 0 0)
(111.454 0 0)
(111.865 0 0)
(112.249 0 0)
(112.658 0 0)
(113.046 0 0)
(113.459 0 0)
(113.849 0 0)
(114.264 0 0)
(114.659 0 0)
(115.076 0 0)
(115.475 0 0)
(115.894 0 0)
(116.297 0 0)
(116.718 0 0)
(117.125 0 0)
(117.55 0 0)
(117.961 0 0)
(118.387 0 0)
(118.804 0 0)
(119.232 0 0)
(119.654 0 0)
(120.085 0 0)
(120.511 0 0)
(120.947 0 0)
(121.376 0 0)
(121.815 0 0)
(122.25 0 0)
(122.692 0 0)
(123.132 0 0)
(123.578 0 0)
(124.022 0 0)
(124.472 0 0)
(124.921 0 0)
(125.376 0 0)
(125.83 0 0)
(126.289 0 0)
(126.75 0 0)
(127.211 0 0)
(127.68 0 0)
(128.143 0 0)
(128.622 0 0)
(129.085 0 0)
(129.574 0 0)
(130.039 0 0)
(130.538 0 0)
(131.004 0 0)
(131.514 0 0)
(131.982 0 0)
(132.502 0 0)
(132.974 0 0)
(133.503 0 0)
(133.978 0 0)
(134.517 0 0)
(134.997 0 0)
(135.546 0 0)
(136.031 0 0)
(136.59 0 0)
(137.081 0 0)
(137.649 0 0)
(138.147 0 0)
(138.725 0 0)
(139.23 0 0)
(139.819 0 0)
(140.329 0 0)
(140.933 0 0)
(141.448 0 0)
(142.066 0 0)
(142.587 0 0)
(143.219 0 0)
(143.749 0 0)
(144.394 0 0)
(144.935 0 0)
(145.591 0 0)
(146.146 0 0)
(146.811 0 0)
(147.385 0 0)
(148.057 0 0)
(148.654 0 0)
(149.331 0 0)
(149.952 0 0)
(150.636 0 0)
(151.282 0 0)
(151.977 0 0)
(152.646 0 0)
(153.358 0 0)
(154.047 0 0)
(154.779 0 0)
(155.487 0 0)
(156.239 0 0)
(156.973 0 0)
(157.743 0 0)
(158.518 0 0)
(159.3 0 0)
(160.129 0 0)
(160.918 0 0)
(161.809 0 0)
(162.599 0 0)
(163.555 0 0)
(164.355 0 0)
(165.381 0 0)
(166.205 0 0)
(167.311 0 0)
(168.171 0 0)
(169.361 0 0)
(170.263 0 0)
(171.543 0 0)
(172.498 0 0)
(173.879 0 0)
(174.908 0 0)
(176.407 0 0)
(177.536 0 0)
(179.172 0 0)
(180.425 0 0)
(182.214 0 0)
(183.61 0 0)
(185.563 0 0)
(187.116 0 0)
(189.234 0 0)
(190.945 0 0)
(193.199 0 0)
(195.028 0 0)
(197.318 0 0)
(199.073 0 0)
(201.137 0 0)
(202.68 0 0)
(204.442 0 0)
(205.744 0 0)
(207.216 0 0)
(208.303 0 0)
(209.544 0 0)
(210.468 0 0)
(211.555 0 0)
(212.376 0 0)
(213.388 0 0)
(214.161 0 0)
(215.148 0 0)
(215.904 0 0)
(216.898 0 0)
(217.669 0 0)
(218.7 0 0)
(219.516 0 0)
(220.593 0 0)
(221.453 0 0)
(222.566 0 0)
(223.46 0 0)
(224.603 0 0)
(225.526 0 0)
(226.692 0 0)
(227.636 0 0)
(228.812 0 0)
(229.761 0 0)
(230.934 0 0)
(231.882 0 0)
(233.048 0 0)
(233.992 0 0)
(235.148 0 0)
(236.087 0 0)
(237.231 0 0)
(238.164 0 0)
(239.295 0 0)
(240.226 0 0)
(241.342 0 0)
(242.275 0 0)
(243.376 0 0)
(244.315 0 0)
(245.4 0 0)
(246.35 0 0)
(247.417 0 0)
(248.378 0 0)
(249.428 0 0)
(250.401 0 0)
(251.436 0 0)
(252.419 0 0)
(253.441 0 0)
(254.431 0 0)
(255.441 0 0)
(256.436 0 0)
(257.437 0 0)
(258.437 0 0)
(259.426 0 0)
(260.431 0 0)
(261.408 0 0)
(262.418 0 0)
(263.381 0 0)
(264.397 0 0)
(265.346 0 0)
(266.368 0 0)
(267.302 0 0)
(268.33 0 0)
(269.248 0 0)
(270.283 0 0)
(271.184 0 0)
(272.226 0 0)
(273.112 0 0)
(274.158 0 0)
(275.028 0 0)
(276.079 0 0)
(276.939 0 0)
(277.989 0 0)
(278.837 0 0)
(279.882 0 0)
(280.73 0 0)
(281.771 0 0)
(282.614 0 0)
(283.639 0 0)
(284.469 0 0)
(285.502 0 0)
(286.316 0 0)
(287.369 0 0)
(288.169 0 0)
(289.199 0 0)
(289.968 0 0)
(290.982 0 0)
(291.705 0 0)
(292.815 0 0)
(293.574 0 0)
(294.786 0 0)
(295.665 0 0)
(294.709 0 0)
(294.778 0 0)
)
;

boundaryField
{
    sideLeft
    {
        type            symmetryPlane;
    }
    sideRight
    {
        type            zeroGradient;
    }
    topbottom
    {
        type            empty;
    }
    frontback
    {
        type            empty;
    }
}


// ************************************************************************* //
