/*--------------------------------*- C++ -*----------------------------------*\
| =========                 |                                                 |
| \\      /  F ield         | OpenFOAM: The Open Source CFD Toolbox           |
|  \\    /   O peration     | Version:  2.4.0                                 |
|   \\  /    A nd           | Web:      www.OpenFOAM.org                      |
|    \\/     M anipulation  |                                                 |
\*---------------------------------------------------------------------------*/
FoamFile
{
    version     2.0;
    format      ascii;
    class       volVectorField;
    location    "0.19";
    object      U.waterMean;
}
// * * * * * * * * * * * * * * * * * * * * * * * * * * * * * * * * * * * * * //

dimensions      [0 1 -1 0 0 0 0];

internalField   nonuniform List<vector> 
1000
(
(-5.9924e-14 0 0)
(-2.6885e-14 0 0)
(-6.09119e-14 0 0)
(-2.32202e-14 0 0)
(-7.57657e-14 0 0)
(-8.07453e-15 0 0)
(-5.39561e-14 0 0)
(-4.07067e-14 0 0)
(-4.36498e-14 0 0)
(-3.83732e-14 0 0)
(-4.69744e-14 0 0)
(-7.40382e-14 0 0)
(-3.34222e-14 0 0)
(-8.31479e-14 0 0)
(-2.83213e-14 0 0)
(-6.26956e-14 0 0)
(-1.48732e-14 0 0)
(-4.6458e-14 0 0)
(1.1125e-14 0 0)
(-6.72278e-14 0 0)
(1.9786e-14 0 0)
(-5.40007e-14 0 0)
(-2.24535e-14 0 0)
(-6.90721e-14 0 0)
(-5.8171e-14 0 0)
(-7.09159e-14 0 0)
(-7.19966e-14 0 0)
(-6.39343e-14 0 0)
(-1.09674e-13 0 0)
(-4.80183e-14 0 0)
(-9.44607e-14 0 0)
(-8.36271e-14 0 0)
(-6.78608e-14 0 0)
(-9.39297e-14 0 0)
(-4.64963e-14 0 0)
(-1.14273e-13 0 0)
(-1.39688e-14 0 0)
(-8.82674e-14 0 0)
(-3.85718e-14 0 0)
(-8.17867e-14 0 0)
(-4.41214e-14 0 0)
(-8.00516e-14 0 0)
(-6.06281e-14 0 0)
(-5.76285e-14 0 0)
(-4.32536e-14 0 0)
(-4.90649e-14 0 0)
(-5.81448e-14 0 0)
(-5.27335e-14 0 0)
(-6.71013e-14 0 0)
(-6.56132e-14 0 0)
(-6.43936e-14 0 0)
(-4.44391e-14 0 0)
(-3.77969e-14 0 0)
(-3.12491e-14 0 0)
(-9.62579e-15 0 0)
(-5.692e-15 0 0)
(-5.83768e-15 0 0)
(-3.17512e-15 0 0)
(-1.83841e-14 0 0)
(-2.27332e-17 0 0)
(-3.23778e-14 0 0)
(3.91691e-14 0 0)
(1.47363e-15 0 0)
(-2.25483e-15 0 0)
(3.87842e-14 0 0)
(2.03254e-14 0 0)
(4.11215e-14 0 0)
(3.32272e-14 0 0)
(1.55723e-14 0 0)
(2.48762e-14 0 0)
(3.02941e-15 0 0)
(5.63921e-15 0 0)
(-1.61963e-14 0 0)
(1.47977e-14 0 0)
(2.3223e-15 0 0)
(-6.35348e-15 0 0)
(1.47564e-14 0 0)
(-2.15006e-15 0 0)
(-7.63636e-15 0 0)
(9.94376e-15 0 0)
(-1.17949e-14 0 0)
(2.04448e-14 0 0)
(-1.03774e-14 0 0)
(4.24153e-14 0 0)
(-1.79202e-14 0 0)
(4.19665e-14 0 0)
(-8.64579e-15 0 0)
(2.89748e-14 0 0)
(4.72703e-15 0 0)
(6.57088e-15 0 0)
(2.95098e-14 0 0)
(1.75766e-14 0 0)
(1.36538e-14 0 0)
(2.20491e-14 0 0)
(-5.23163e-15 0 0)
(2.73666e-14 0 0)
(-3.46439e-14 0 0)
(5.03431e-14 0 0)
(-1.69479e-14 0 0)
(1.06094e-14 0 0)
(-8.13361e-15 0 0)
(1.718e-14 0 0)
(6.66049e-15 0 0)
(5.68793e-15 0 0)
(-6.49209e-15 0 0)
(-4.09847e-15 0 0)
(1.96967e-14 0 0)
(9.47258e-15 0 0)
(-2.16525e-14 0 0)
(5.5457e-15 0 0)
(-4.0392e-14 0 0)
(1.03773e-14 0 0)
(-2.0972e-14 0 0)
(-1.64586e-14 0 0)
(1.23424e-15 0 0)
(2.18408e-15 0 0)
(4.52167e-14 0 0)
(4.5385e-14 0 0)
(7.74751e-14 0 0)
(3.13577e-14 0 0)
(9.04031e-14 0 0)
(6.73335e-14 0 0)
(1.22105e-13 0 0)
(7.94278e-14 0 0)
(1.20661e-13 0 0)
(6.08715e-14 0 0)
(1.14505e-13 0 0)
(6.36576e-14 0 0)
(1.21596e-13 0 0)
(4.84074e-14 0 0)
(1.17624e-13 0 0)
(3.53707e-14 0 0)
(7.84661e-14 0 0)
(5.46896e-14 0 0)
(8.89409e-14 0 0)
(6.42595e-14 0 0)
(6.76249e-14 0 0)
(7.87468e-14 0 0)
(7.43937e-14 0 0)
(8.56279e-14 0 0)
(6.10432e-14 0 0)
(7.97114e-14 0 0)
(3.75134e-14 0 0)
(5.92401e-14 0 0)
(8.20541e-15 0 0)
(6.45767e-14 0 0)
(3.26813e-14 0 0)
(5.37469e-14 0 0)
(4.71351e-14 0 0)
(5.81935e-14 0 0)
(3.7038e-14 0 0)
(2.89117e-14 0 0)
(1.86649e-14 0 0)
(4.24643e-14 0 0)
(3.66715e-14 0 0)
(7.25612e-14 0 0)
(2.98692e-14 0 0)
(6.16188e-14 0 0)
(1.2057e-14 0 0)
(5.39898e-14 0 0)
(1.29212e-14 0 0)
(8.00702e-14 0 0)
(3.00563e-14 0 0)
(6.02874e-14 0 0)
(4.56059e-14 0 0)
(7.95018e-14 0 0)
(8.11566e-15 0 0)
(7.33723e-14 0 0)
(7.67417e-15 0 0)
(2.93865e-14 0 0)
(2.13544e-15 0 0)
(2.50184e-14 0 0)
(5.38772e-16 0 0)
(3.33204e-14 0 0)
(-1.53286e-15 0 0)
(3.66485e-14 0 0)
(-2.1312e-14 0 0)
(4.39708e-14 0 0)
(-1.10692e-14 0 0)
(-5.7516e-15 0 0)
(1.86544e-17 0 0)
(-2.0119e-15 0 0)
(2.57363e-14 0 0)
(-2.21384e-14 0 0)
(4.74523e-14 0 0)
(-1.84885e-14 0 0)
(5.79982e-14 0 0)
(-3.61767e-14 0 0)
(8.45162e-14 0 0)
(-3.61543e-15 0 0)
(9.91461e-14 0 0)
(1.11899e-14 0 0)
(1.02935e-13 0 0)
(1.05202e-14 0 0)
(7.92776e-14 0 0)
(1.50376e-14 0 0)
(5.89226e-14 0 0)
(3.19483e-14 0 0)
(7.46142e-14 0 0)
(1.35679e-14 0 0)
(7.70298e-14 0 0)
(-9.07174e-15 0 0)
(9.82375e-14 0 0)
(2.69449e-14 0 0)
(5.71014e-14 0 0)
(5.22774e-14 0 0)
(9.249e-14 0 0)
(7.63535e-14 0 0)
(7.46408e-14 0 0)
(8.91169e-14 0 0)
(8.88403e-14 0 0)
(1.19449e-13 0 0)
(8.01608e-14 0 0)
(1.39632e-13 0 0)
(8.99776e-14 0 0)
(1.58948e-13 0 0)
(1.17793e-13 0 0)
(1.37292e-13 0 0)
(1.30358e-13 0 0)
(1.26664e-13 0 0)
(1.41791e-13 0 0)
(1.19442e-13 0 0)
(1.57239e-13 0 0)
(1.43167e-13 0 0)
(1.36271e-13 0 0)
(1.71813e-13 0 0)
(1.71944e-13 0 0)
(1.53418e-13 0 0)
(1.6878e-13 0 0)
(1.59954e-13 0 0)
(1.2859e-13 0 0)
(1.44737e-13 0 0)
(9.62229e-14 0 0)
(1.58099e-13 0 0)
(7.8538e-14 0 0)
(1.7771e-13 0 0)
(9.76516e-14 0 0)
(1.55735e-13 0 0)
(8.997e-14 0 0)
(1.06933e-13 0 0)
(1.16593e-13 0 0)
(1.27437e-13 0 0)
(9.03218e-14 0 0)
(1.64584e-13 0 0)
(1.36888e-13 0 0)
(1.38975e-13 0 0)
(1.67793e-13 0 0)
(1.605e-13 0 0)
(1.8013e-13 0 0)
(1.7755e-13 0 0)
(1.65171e-13 0 0)
(1.98896e-13 0 0)
(1.90242e-13 0 0)
(1.60942e-13 0 0)
(1.84662e-13 0 0)
(1.53841e-13 0 0)
(1.95728e-13 0 0)
(1.52262e-13 0 0)
(1.91397e-13 0 0)
(1.45243e-13 0 0)
(2.09729e-13 0 0)
(1.72348e-13 0 0)
(1.78252e-13 0 0)
(1.65904e-13 0 0)
(1.41578e-13 0 0)
(1.65743e-13 0 0)
(9.21171e-14 0 0)
(1.88622e-13 0 0)
(1.07573e-13 0 0)
(2.08682e-13 0 0)
(1.26301e-13 0 0)
(2.06042e-13 0 0)
(1.33825e-13 0 0)
(1.67015e-13 0 0)
(1.56488e-13 0 0)
(1.92811e-13 0 0)
(1.34409e-13 0 0)
(2.0348e-13 0 0)
(1.51709e-13 0 0)
(1.91446e-13 0 0)
(1.86282e-13 0 0)
(2.10814e-13 0 0)
(2.10332e-13 0 0)
(1.49525e-13 0 0)
(2.27351e-13 0 0)
(1.86417e-13 0 0)
(1.89487e-13 0 0)
(2.11577e-13 0 0)
(2.12905e-13 0 0)
(1.94928e-13 0 0)
(2.19415e-13 0 0)
(2.06884e-13 0 0)
(2.34748e-13 0 0)
(1.73437e-13 0 0)
(2.58386e-13 0 0)
(2.02206e-13 0 0)
(2.27449e-13 0 0)
(2.20163e-13 0 0)
(2.50922e-13 0 0)
(1.90942e-13 0 0)
(2.72235e-13 0 0)
(2.01536e-13 0 0)
(2.39737e-13 0 0)
(2.03114e-13 0 0)
(2.00583e-13 0 0)
(2.25459e-13 0 0)
(2.22995e-13 0 0)
(2.01558e-13 0 0)
(2.04101e-13 0 0)
(1.5764e-13 0 0)
(2.11289e-13 0 0)
(1.64842e-13 0 0)
(1.91469e-13 0 0)
(1.8758e-13 0 0)
(2.30978e-13 0 0)
(2.27486e-13 0 0)
(2.58525e-13 0 0)
(2.56641e-13 0 0)
(2.64431e-13 0 0)
(3.35159e-13 0 0)
(3.68282e-13 0 0)
(4.21816e-13 0 0)
(5.31699e-13 0 0)
(6.44691e-13 0 0)
(8.54266e-13 0 0)
(1.11729e-12 0 0)
(1.51026e-12 0 0)
(2.15534e-12 0 0)
(3.01665e-12 0 0)
(4.31628e-12 0 0)
(6.20395e-12 0 0)
(8.90325e-12 0 0)
(1.27366e-11 0 0)
(1.83444e-11 0 0)
(2.62219e-11 0 0)
(3.76366e-11 0 0)
(5.37053e-11 0 0)
(7.6621e-11 0 0)
(1.09016e-10 0 0)
(1.54745e-10 0 0)
(2.19132e-10 0 0)
(3.0947e-10 0 0)
(4.35979e-10 0 0)
(6.12495e-10 0 0)
(8.58351e-10 0 0)
(1.19949e-09 0 0)
(1.67192e-09 0 0)
(2.32387e-09 0 0)
(3.2214e-09 0 0)
(4.45323e-09 0 0)
(6.13925e-09 0 0)
(8.4402e-09 0 0)
(1.15714e-08 0 0)
(1.58199e-08 0 0)
(2.15679e-08 0 0)
(2.93217e-08 0 0)
(3.97508e-08 0 0)
(5.37368e-08 0 0)
(7.24374e-08 0 0)
(9.73673e-08 0 0)
(1.30502e-07 0 0)
(1.74411e-07 0 0)
(2.32421e-07 0 0)
(3.0883e-07 0 0)
(4.09165e-07 0 0)
(5.40516e-07 0 0)
(7.11945e-07 0 0)
(9.3499e-07 0 0)
(1.22429e-06 0 0)
(1.59837e-06 0 0)
(2.08055e-06 0 0)
(2.70011e-06 0 0)
(3.49371e-06 0 0)
(4.50699e-06 0 0)
(5.79666e-06 0 0)
(7.43285e-06 0 0)
(9.50203e-06 0 0)
(1.21103e-05 0 0)
(1.53875e-05 0 0)
(1.94919e-05 0 0)
(2.46153e-05 0 0)
(3.09898e-05 0 0)
(3.88948e-05 0 0)
(4.86655e-05 0 0)
(6.0702e-05 0 0)
(7.54805e-05 0 0)
(9.35649e-05 0 0)
(0.000115621 0 0)
(0.000142429 0 0)
(0.000174905 0 0)
(0.000214114 0 0)
(0.00026129 0 0)
(0.000317859 0 0)
(0.000385463 0 0)
(0.000465976 0 0)
(0.000561538 0 0)
(0.000674575 0 0)
(0.000807824 0 0)
(0.000964366 0 0)
(0.00114765 0 0)
(0.0013615 0 0)
(0.00161018 0 0)
(0.00189838 0 0)
(0.00223125 0 0)
(0.00261444 0 0)
(0.00305407 0 0)
(0.00355678 0 0)
(0.00412974 0 0)
(0.00478061 0 0)
(0.00551762 0 0)
(0.00634948 0 0)
(0.00728542 0 0)
(0.00833516 0 0)
(0.00950891 0 0)
(0.0108173 0 0)
(0.0122714 0 0)
(0.0138827 0 0)
(0.015663 0 0)
(0.0176244 0 0)
(0.0197793 0 0)
(0.0221403 0 0)
(0.0247201 0 0)
(0.0275317 0 0)
(0.0305881 0 0)
(0.0339022 0 0)
(0.037487 0 0)
(0.0413556 0 0)
(0.0455205 0 0)
(0.0499946 0 0)
(0.0547903 0 0)
(0.0599198 0 0)
(0.0653951 0 0)
(0.0712278 0 0)
(0.0774293 0 0)
(0.0840105 0 0)
(0.0909822 0 0)
(0.0983546 0 0)
(0.106137 0 0)
(0.11434 0 0)
(0.122972 0 0)
(0.132042 0 0)
(0.141557 0 0)
(0.151526 0 0)
(0.161956 0 0)
(0.172853 0 0)
(0.184226 0 0)
(0.196078 0 0)
(0.208418 0 0)
(0.221249 0 0)
(0.234576 0 0)
(0.248406 0 0)
(0.262741 0 0)
(0.277586 0 0)
(0.292945 0 0)
(0.308821 0 0)
(0.325217 0 0)
(0.342137 0 0)
(0.359582 0 0)
(0.377556 0 0)
(0.396061 0 0)
(0.415098 0 0)
(0.43467 0 0)
(0.454778 0 0)
(0.475423 0 0)
(0.496608 0 0)
(0.518334 0 0)
(0.540601 0 0)
(0.56341 0 0)
(0.586763 0 0)
(0.61066 0 0)
(0.635102 0 0)
(0.66009 0 0)
(0.685624 0 0)
(0.711706 0 0)
(0.738334 0 0)
(0.76551 0 0)
(0.793235 0 0)
(0.821507 0 0)
(0.850329 0 0)
(0.8797 0 0)
(0.909621 0 0)
(0.940091 0 0)
(0.971112 0 0)
(1.00268 0 0)
(1.0348 0 0)
(1.06748 0 0)
(1.1007 0 0)
(1.13447 0 0)
(1.1688 0 0)
(1.20368 0 0)
(1.23911 0 0)
(1.27509 0 0)
(1.31163 0 0)
(1.34871 0 0)
(1.38635 0 0)
(1.42455 0 0)
(1.4633 0 0)
(1.5026 0 0)
(1.54246 0 0)
(1.58287 0 0)
(1.62384 0 0)
(1.66536 0 0)
(1.70744 0 0)
(1.75007 0 0)
(1.79326 0 0)
(1.83701 0 0)
(1.88132 0 0)
(1.92618 0 0)
(1.9716 0 0)
(2.01758 0 0)
(2.06412 0 0)
(2.11122 0 0)
(2.15888 0 0)
(2.20711 0 0)
(2.25589 0 0)
(2.30523 0 0)
(2.35514 0 0)
(2.40561 0 0)
(2.45665 0 0)
(2.50825 0 0)
(2.56041 0 0)
(2.61314 0 0)
(2.66644 0 0)
(2.7203 0 0)
(2.77473 0 0)
(2.82973 0 0)
(2.88529 0 0)
(2.94143 0 0)
(2.99813 0 0)
(3.05541 0 0)
(3.11326 0 0)
(3.17168 0 0)
(3.23068 0 0)
(3.29024 0 0)
(3.35039 0 0)
(3.4111 0 0)
(3.4724 0 0)
(3.53427 0 0)
(3.59672 0 0)
(3.65974 0 0)
(3.72335 0 0)
(3.78753 0 0)
(3.8523 0 0)
(3.91765 0 0)
(3.98358 0 0)
(4.05009 0 0)
(4.11719 0 0)
(4.18488 0 0)
(4.25315 0 0)
(4.322 0 0)
(4.39145 0 0)
(4.46148 0 0)
(4.5321 0 0)
(4.60332 0 0)
(4.67512 0 0)
(4.74752 0 0)
(4.82051 0 0)
(4.89409 0 0)
(4.96827 0 0)
(5.04304 0 0)
(5.11841 0 0)
(5.19438 0 0)
(5.27095 0 0)
(5.34812 0 0)
(5.42589 0 0)
(5.50426 0 0)
(5.58324 0 0)
(5.66282 0 0)
(5.743 0 0)
(5.82379 0 0)
(5.90519 0 0)
(5.98719 0 0)
(6.0698 0 0)
(6.15303 0 0)
(6.23687 0 0)
(6.32131 0 0)
(6.40638 0 0)
(6.49205 0 0)
(6.57835 0 0)
(6.66526 0 0)
(6.75278 0 0)
(6.84093 0 0)
(6.9297 0 0)
(7.01909 0 0)
(7.1091 0 0)
(7.19974 0 0)
(7.291 0 0)
(7.38289 0 0)
(7.47541 0 0)
(7.56855 0 0)
(7.66233 0 0)
(7.75674 0 0)
(7.85178 0 0)
(7.94745 0 0)
(8.04376 0 0)
(8.14071 0 0)
(8.2383 0 0)
(8.33652 0 0)
(8.43539 0 0)
(8.5349 0 0)
(8.63505 0 0)
(8.73585 0 0)
(8.83729 0 0)
(8.93938 0 0)
(9.04213 0 0)
(9.14552 0 0)
(9.24956 0 0)
(9.35426 0 0)
(9.45962 0 0)
(9.56563 0 0)
(9.6723 0 0)
(9.77963 0 0)
(9.88762 0 0)
(9.99627 0 0)
(10.1056 0 0)
(10.2156 0 0)
(10.3262 0 0)
(10.4376 0 0)
(10.5495 0 0)
(10.6622 0 0)
(10.7756 0 0)
(10.8896 0 0)
(11.0043 0 0)
(11.1196 0 0)
(11.2357 0 0)
(11.3524 0 0)
(11.4698 0 0)
(11.588 0 0)
(11.7068 0 0)
(11.8262 0 0)
(11.9464 0 0)
(12.0673 0 0)
(12.1889 0 0)
(12.3111 0 0)
(12.4341 0 0)
(12.5577 0 0)
(12.6821 0 0)
(12.8072 0 0)
(12.933 0 0)
(13.0594 0 0)
(13.1866 0 0)
(13.3145 0 0)
(13.4432 0 0)
(13.5725 0 0)
(13.7026 0 0)
(13.8333 0 0)
(13.9648 0 0)
(14.0971 0 0)
(14.23 0 0)
(14.3637 0 0)
(14.4981 0 0)
(14.6333 0 0)
(14.7691 0 0)
(14.9058 0 0)
(15.0431 0 0)
(15.1812 0 0)
(15.3201 0 0)
(15.4597 0 0)
(15.6 0 0)
(15.7411 0 0)
(15.8829 0 0)
(16.0255 0 0)
(16.1689 0 0)
(16.313 0 0)
(16.4579 0 0)
(16.6035 0 0)
(16.75 0 0)
(16.8971 0 0)
(17.0451 0 0)
(17.1938 0 0)
(17.3433 0 0)
(17.4936 0 0)
(17.6447 0 0)
(17.7966 0 0)
(17.9492 0 0)
(18.1027 0 0)
(18.2569 0 0)
(18.4119 0 0)
(18.5678 0 0)
(18.7244 0 0)
(18.8818 0 0)
(19.0401 0 0)
(19.1991 0 0)
(19.359 0 0)
(19.5197 0 0)
(19.6812 0 0)
(19.8435 0 0)
(20.0067 0 0)
(20.1707 0 0)
(20.3355 0 0)
(20.5011 0 0)
(20.6676 0 0)
(20.8349 0 0)
(21.0031 0 0)
(21.1721 0 0)
(21.342 0 0)
(21.5127 0 0)
(21.6843 0 0)
(21.8567 0 0)
(22.03 0 0)
(22.2042 0 0)
(22.3793 0 0)
(22.5552 0 0)
(22.732 0 0)
(22.9096 0 0)
(23.0882 0 0)
(23.2677 0 0)
(23.448 0 0)
(23.6292 0 0)
(23.8114 0 0)
(23.9944 0 0)
(24.1784 0 0)
(24.3632 0 0)
(24.549 0 0)
(24.7357 0 0)
(24.9233 0 0)
(25.1119 0 0)
(25.3013 0 0)
(25.4918 0 0)
(25.6831 0 0)
(25.8755 0 0)
(26.0686 0 0)
(26.263 0 0)
(26.4579 0 0)
(26.6543 0 0)
(26.851 0 0)
(27.0496 0 0)
(27.248 0 0)
(27.4487 0 0)
(27.649 0 0)
(27.8518 0 0)
(28.0539 0 0)
(28.2588 0 0)
(28.4628 0 0)
(28.6698 0 0)
(28.8759 0 0)
(29.0847 0 0)
(29.2931 0 0)
(29.5037 0 0)
(29.7145 0 0)
(29.9268 0 0)
(30.1402 0 0)
(30.3539 0 0)
(30.5701 0 0)
(30.7853 0 0)
(31.0043 0 0)
(31.2209 0 0)
(31.4428 0 0)
(31.6608 0 0)
(31.8857 0 0)
(32.1051 0 0)
(32.333 0 0)
(32.5539 0 0)
(32.7847 0 0)
(33.0071 0 0)
(33.2409 0 0)
(33.4648 0 0)
(33.7017 0 0)
(33.9271 0 0)
(34.1672 0 0)
(34.394 0 0)
(34.6373 0 0)
(34.8657 0 0)
(35.1121 0 0)
(35.342 0 0)
(35.5917 0 0)
(35.8232 0 0)
(36.0761 0 0)
(36.3093 0 0)
(36.5655 0 0)
(36.8003 0 0)
(37.0599 0 0)
(37.2964 0 0)
(37.5592 0 0)
(37.7975 0 0)
(38.0637 0 0)
(38.3039 0 0)
(38.5732 0 0)
(38.8156 0 0)
(39.0879 0 0)
(39.3327 0 0)
(39.608 0 0)
(39.8551 0 0)
(40.1334 0 0)
(40.3831 0 0)
(40.6644 0 0)
(40.9166 0 0)
(41.2009 0 0)
(41.4557 0 0)
(41.7432 0 0)
(42.0005 0 0)
(42.2912 0 0)
(42.5512 0 0)
(42.845 0 0)
(43.1077 0 0)
(43.4049 0 0)
(43.6703 0 0)
(43.9708 0 0)
(44.2391 0 0)
(44.5429 0 0)
(44.814 0 0)
(45.1213 0 0)
(45.3953 0 0)
(45.706 0 0)
(45.9831 0 0)
(46.2974 0 0)
(46.5775 0 0)
(46.8954 0 0)
(47.1785 0 0)
(47.5001 0 0)
(47.7865 0 0)
(48.1118 0 0)
(48.4014 0 0)
(48.7306 0 0)
(49.0235 0 0)
(49.3566 0 0)
(49.6529 0 0)
(49.99 0 0)
(50.2897 0 0)
(50.631 0 0)
(50.9342 0 0)
(51.2796 0 0)
(51.5865 0 0)
(51.9362 0 0)
(52.2469 0 0)
(52.6008 0 0)
(52.9154 0 0)
(53.2738 0 0)
(53.5923 0 0)
(53.9553 0 0)
(54.2779 0 0)
(54.6455 0 0)
(54.9724 0 0)
(55.3447 0 0)
(55.6759 0 0)
(56.0532 0 0)
(56.3889 0 0)
(56.7711 0 0)
(57.1115 0 0)
(57.4989 0 0)
(57.8441 0 0)
(58.2368 0 0)
(58.5869 0 0)
(58.9852 0 0)
(59.3403 0 0)
(59.7443 0 0)
(60.1048 0 0)
(60.5146 0 0)
(60.8806 0 0)
(61.2965 0 0)
(61.6682 0 0)
(62.0905 0 0)
(62.4681 0 0)
(62.8969 0 0)
(63.2807 0 0)
(63.7164 0 0)
(64.1065 0 0)
(64.5495 0 0)
(64.9463 0 0)
(65.3968 0 0)
(65.8005 0 0)
(66.259 0 0)
(66.67 0 0)
(67.137 0 0)
(67.5556 0 0)
(68.0314 0 0)
(68.4581 0 0)
(68.9432 0 0)
(69.3785 0 0)
(69.8736 0 0)
(70.3179 0 0)
(70.8236 0 0)
(71.2777 0 0)
(71.7947 0 0)
(72.2593 0 0)
(72.7886 0 0)
(73.2645 0 0)
(73.8072 0 0)
(74.2952 0 0)
(74.8524 0 0)
(75.3539 0 0)
(75.927 0 0)
(76.4433 0 0)
(77.0341 0 0)
(77.5668 0 0)
(78.1771 0 0)
(78.7281 0 0)
(79.3601 0 0)
(79.9314 0 0)
(80.5873 0 0)
(81.1811 0 0)
(81.8633 0 0)
(82.4815 0 0)
(83.1916 0 0)
(83.8351 0 0)
(84.5731 0 0)
(85.2407 0 0)
(86.0035 0 0)
(86.6889 0 0)
(87.4657 0 0)
(88.1509 0 0)
(88.9185 0 0)
(89.5565 0 0)
(90.2624 0 0)
(90.8359 0 0)
(91.4831 0 0)
(92.0074 0 0)
(92.6175 0 0)
(93.1155 0 0)
(93.7108 0 0)
(94.2009 0 0)
(94.7962 0 0)
(95.2895 0 0)
(95.8919 0 0)
(96.3932 0 0)
(97.0047 0 0)
(97.5145 0 0)
(98.1344 0 0)
(98.6513 0 0)
(99.2781 0 0)
(99.8002 0 0)
(100.432 0 0)
(100.957 0 0)
(101.593 0 0)
(102.12 0 0)
(102.758 0 0)
(103.287 0 0)
(103.926 0 0)
(104.456 0 0)
(105.096 0 0)
(105.627 0 0)
(106.268 0 0)
(106.8 0 0)
(107.442 0 0)
(107.974 0 0)
(108.617 0 0)
(109.149 0 0)
(109.792 0 0)
(110.324 0 0)
(110.968 0 0)
(111.5 0 0)
(112.145 0 0)
(112.677 0 0)
(113.321 0 0)
(113.852 0 0)
(114.496 0 0)
(115.027 0 0)
(115.67 0 0)
(116.2 0 0)
(116.842 0 0)
(117.371 0 0)
(118.012 0 0)
(118.539 0 0)
(119.178 0 0)
(119.705 0 0)
(120.342 0 0)
(120.866 0 0)
(121.5 0 0)
(122.022 0 0)
(122.654 0 0)
(123.173 0 0)
(123.801 0 0)
(124.317 0 0)
(124.94 0 0)
(125.451 0 0)
(126.069 0 0)
(126.573 0 0)
(127.184 0 0)
(127.68 0 0)
(128.281 0 0)
(128.767 0 0)
(129.356 0 0)
(129.829 0 0)
(130.404 0 0)
(130.862 0 0)
(131.421 0 0)
(131.861 0 0)
(132.4 0 0)
(132.821 0 0)
(133.343 0 0)
(133.747 0 0)
(134.248 0 0)
(134.622 0 0)
(135.091 0 0)
(135.414 0 0)
(135.845 0 0)
(136.101 0 0)
(136.488 0 0)
(136.665 0 0)
(137.001 0 0)
(137.084 0 0)
(137.349 0 0)
(137.3 0 0)
(137.471 0 0)
(137.24 0 0)
(137.296 0 0)
(136.862 0 0)
(136.686 0 0)
(135.8 0 0)
(136.5 0 0)
)
;

boundaryField
{
    sideLeft
    {
        type            symmetryPlane;
    }
    sideRight
    {
        type            calculated;
        value           uniform (136.5 0 0);
    }
    topbottom
    {
        type            empty;
    }
    frontback
    {
        type            empty;
    }
}


// ************************************************************************* //
