/*--------------------------------*- C++ -*----------------------------------*\
| =========                 |                                                 |
| \\      /  F ield         | OpenFOAM: The Open Source CFD Toolbox           |
|  \\    /   O peration     | Version:  2.4.0                                 |
|   \\  /    A nd           | Web:      www.OpenFOAM.org                      |
|    \\/     M anipulation  |                                                 |
\*---------------------------------------------------------------------------*/
FoamFile
{
    version     2.0;
    format      ascii;
    class       volVectorField;
    location    "0.19";
    object      Ur;
}
// * * * * * * * * * * * * * * * * * * * * * * * * * * * * * * * * * * * * * //

dimensions      [0 1 -1 0 0 0 0];

internalField   nonuniform List<vector> 
1000
(
(3.55271e-14 0 0)
(5.68434e-14 0 0)
(-1.42109e-14 0 0)
(-7.81597e-14 0 0)
(-2.13163e-14 0 0)
(7.10543e-15 0 0)
(-1.42109e-14 0 0)
(2.13163e-14 0 0)
(2.84217e-14 0 0)
(3.55271e-14 0 0)
(1.42109e-14 0 0)
(-7.10543e-15 0 0)
(2.84217e-14 0 0)
(-2.11535e-22 0 0)
(-3.55271e-14 0 0)
(-2.84217e-14 0 0)
(-2.84217e-14 0 0)
(6.52487e-22 0 0)
(2.13163e-14 0 0)
(1.42109e-14 0 0)
(2.13163e-14 0 0)
(-2.13163e-14 0 0)
(-7.10543e-15 0 0)
(-4.26326e-14 0 0)
(-1.42109e-14 0 0)
(7.10543e-14 0 0)
(1.42109e-14 0 0)
(-5.68434e-14 0 0)
(-2.13163e-14 0 0)
(7.10543e-14 0 0)
(1.42109e-14 0 0)
(-2.84217e-14 0 0)
(7.10543e-15 0 0)
(4.9738e-14 0 0)
(-4.26326e-14 0 0)
(-7.10543e-14 0 0)
(3.55271e-14 0 0)
(-7.10543e-15 0 0)
(-2.13163e-14 0 0)
(-7.10543e-15 0 0)
(7.10543e-15 0 0)
(2.84217e-14 0 0)
(7.10543e-15 0 0)
(1.42109e-14 0 0)
(-7.10543e-15 0 0)
(7.10543e-15 0 0)
(7.10543e-15 0 0)
(3.14462e-22 0 0)
(-7.10543e-15 0 0)
(-4.26326e-14 0 0)
(7.10543e-15 0 0)
(2.13163e-14 0 0)
(-2.84217e-14 0 0)
(7.10543e-15 0 0)
(3.55271e-14 0 0)
(4.9738e-14 0 0)
(2.6133e-22 0 0)
(-4.9738e-14 0 0)
(1.42109e-14 0 0)
(3.55271e-14 0 0)
(7.10543e-15 0 0)
(-6.39488e-14 0 0)
(-2.84217e-14 0 0)
(4.26326e-14 0 0)
(-3.55271e-14 0 0)
(-6.39488e-14 0 0)
(2.13163e-14 0 0)
(3.55271e-14 0 0)
(2.13163e-14 0 0)
(-1.82462e-21 0 0)
(-2.6305e-21 0 0)
(1.42109e-14 0 0)
(7.10543e-15 0 0)
(7.10543e-15 0 0)
(-4.9738e-14 0 0)
(-1.42109e-14 0 0)
(5.68434e-14 0 0)
(4.9738e-14 0 0)
(-1.42109e-14 0 0)
(-4.9738e-14 0 0)
(-5.68434e-14 0 0)
(-7.10543e-15 0 0)
(2.21511e-21 0 0)
(-2.13163e-14 0 0)
(4.9738e-14 0 0)
(3.55271e-14 0 0)
(3.08114e-22 0 0)
(-2.84217e-14 0 0)
(3.55271e-14 0 0)
(3.55271e-14 0 0)
(-7.10543e-15 0 0)
(7.10543e-15 0 0)
(-2.84217e-14 0 0)
(1.68042e-21 0 0)
(2.13163e-14 0 0)
(5.75792e-22 0 0)
(-3.55271e-14 0 0)
(5.68107e-23 0 0)
(7.81597e-14 0 0)
(2.13163e-14 0 0)
(1.42109e-14 0 0)
(-3.55271e-14 0 0)
(-9.9476e-14 0 0)
(-4.26326e-14 0 0)
(-7.10543e-15 0 0)
(3.55271e-14 0 0)
(6.39488e-14 0 0)
(7.10543e-15 0 0)
(-4.26326e-14 0 0)
(-7.10543e-15 0 0)
(2.84217e-14 0 0)
(-7.10543e-15 0 0)
(-2.84217e-14 0 0)
(3.55271e-14 0 0)
(7.10543e-15 0 0)
(-7.10543e-14 0 0)
(-2.84217e-14 0 0)
(-2.93911e-22 0 0)
(-2.13163e-14 0 0)
(-1.42109e-14 0 0)
(1.42109e-14 0 0)
(-7.10543e-15 0 0)
(3.55271e-14 0 0)
(5.68434e-14 0 0)
(-1.42109e-14 0 0)
(-7.10543e-14 0 0)
(-1.42109e-14 0 0)
(-7.10543e-15 0 0)
(-2.13163e-14 0 0)
(2.84217e-14 0 0)
(-7.10543e-15 0 0)
(4.9738e-14 0 0)
(1.42109e-14 0 0)
(-7.10543e-15 0 0)
(5.68434e-14 0 0)
(1.42109e-14 0 0)
(-2.84217e-14 0 0)
(-2.13163e-14 0 0)
(7.10543e-15 0 0)
(7.10543e-15 0 0)
(7.10543e-15 0 0)
(-7.10543e-15 0 0)
(-1.42109e-14 0 0)
(4.9738e-14 0 0)
(-7.73623e-23 0 0)
(-3.55271e-14 0 0)
(2.13163e-14 0 0)
(2.13163e-14 0 0)
(-3.55271e-14 0 0)
(-7.10543e-15 0 0)
(2.84217e-14 0 0)
(-7.10543e-15 0 0)
(-1.11182e-21 0 0)
(-2.13163e-14 0 0)
(-4.26326e-14 0 0)
(1.42109e-14 0 0)
(3.55271e-14 0 0)
(1.09611e-21 0 0)
(7.10543e-15 0 0)
(7.10543e-15 0 0)
(-1.42109e-14 0 0)
(-7.10543e-15 0 0)
(3.55271e-14 0 0)
(-7.7179e-22 0 0)
(-3.55271e-14 0 0)
(-3.55271e-14 0 0)
(-2.13163e-14 0 0)
(7.10543e-15 0 0)
(4.9738e-14 0 0)
(4.9738e-14 0 0)
(-3.55271e-14 0 0)
(-4.9738e-14 0 0)
(-1.42109e-14 0 0)
(1.42109e-14 0 0)
(-7.10543e-15 0 0)
(-1.42109e-14 0 0)
(2.84217e-14 0 0)
(8.52651e-14 0 0)
(2.84217e-14 0 0)
(-4.9738e-14 0 0)
(-3.55271e-14 0 0)
(-7.10543e-15 0 0)
(-4.26326e-14 0 0)
(-6.39488e-14 0 0)
(-8.87241e-23 0 0)
(2.84217e-14 0 0)
(2.13163e-14 0 0)
(1.13687e-13 0 0)
(4.9738e-14 0 0)
(-8.52651e-14 0 0)
(-2.84217e-14 0 0)
(-7.10543e-15 0 0)
(1.78954e-22 0 0)
(2.22932e-21 0 0)
(-2.13163e-14 0 0)
(1.14373e-21 0 0)
(3.91157e-22 0 0)
(1.42109e-14 0 0)
(2.84217e-14 0 0)
(-1.42109e-14 0 0)
(5.68434e-14 0 0)
(2.13163e-14 0 0)
(-3.55271e-14 0 0)
(1.43764e-21 0 0)
(-2.13163e-14 0 0)
(-5.68434e-14 0 0)
(-9.15152e-22 0 0)
(4.26326e-14 0 0)
(2.56984e-22 0 0)
(7.10543e-15 0 0)
(-1.42109e-14 0 0)
(-1.42912e-21 0 0)
(-2.13163e-14 0 0)
(-1.42109e-14 0 0)
(2.13163e-14 0 0)
(7.10543e-15 0 0)
(-2.84217e-14 0 0)
(3.55271e-14 0 0)
(8.52651e-14 0 0)
(-7.10543e-15 0 0)
(1.42109e-14 0 0)
(7.10543e-15 0 0)
(-7.10543e-15 0 0)
(-7.10543e-15 0 0)
(-1.42109e-14 0 0)
(-1.42109e-14 0 0)
(-2.13163e-14 0 0)
(-7.10543e-15 0 0)
(4.26326e-14 0 0)
(4.9738e-14 0 0)
(-2.84217e-14 0 0)
(-2.13163e-14 0 0)
(-4.9738e-14 0 0)
(-1.24316e-22 0 0)
(4.9738e-14 0 0)
(1.42109e-14 0 0)
(-5.68434e-14 0 0)
(-3.55271e-14 0 0)
(1.13687e-13 0 0)
(2.84217e-14 0 0)
(-5.68434e-14 0 0)
(1.37381e-21 0 0)
(2.84217e-14 0 0)
(-4.26326e-14 0 0)
(-2.13163e-14 0 0)
(1.42109e-14 0 0)
(-2.13163e-14 0 0)
(-7.10543e-15 0 0)
(-1.42109e-14 0 0)
(7.10543e-15 0 0)
(7.10543e-15 0 0)
(1.42109e-14 0 0)
(4.26326e-14 0 0)
(7.10543e-15 0 0)
(1.42109e-14 0 0)
(-7.09298e-22 0 0)
(-7.10543e-15 0 0)
(-7.10543e-15 0 0)
(-2.84217e-14 0 0)
(-1.42109e-14 0 0)
(-1.42109e-14 0 0)
(2.84217e-14 0 0)
(-3.55271e-14 0 0)
(-5.68434e-14 0 0)
(1.42109e-14 0 0)
(7.10543e-15 0 0)
(-7.10543e-15 0 0)
(2.13163e-14 0 0)
(3.55271e-14 0 0)
(-1.42109e-14 0 0)
(-2.13163e-14 0 0)
(4.9738e-14 0 0)
(1.42109e-14 0 0)
(-6.39488e-14 0 0)
(-2.13163e-14 0 0)
(4.9738e-14 0 0)
(2.84217e-14 0 0)
(-4.9738e-14 0 0)
(-9.9476e-14 0 0)
(-4.26326e-14 0 0)
(3.55271e-14 0 0)
(3.55271e-14 0 0)
(2.13163e-14 0 0)
(3.55271e-14 0 0)
(-3.55271e-14 0 0)
(2.84217e-14 0 0)
(2.84217e-14 0 0)
(-7.81597e-14 0 0)
(-2.13163e-14 0 0)
(9.33701e-22 0 0)
(1.42109e-14 0 0)
(-1.42109e-14 0 0)
(-2.13163e-14 0 0)
(2.13163e-14 0 0)
(3.55271e-14 0 0)
(2.13163e-14 0 0)
(2.84217e-14 0 0)
(-7.10543e-15 0 0)
(-4.26326e-14 0 0)
(-3.55271e-14 0 0)
(-7.10543e-15 0 0)
(4.9738e-14 0 0)
(2.13163e-14 0 0)
(-7.10543e-15 0 0)
(1.42109e-14 0 0)
(-7.10543e-15 0 0)
(-2.13163e-14 0 0)
(7.10543e-15 0 0)
(-1.42109e-14 0 0)
(-7.10542e-15 0 0)
(3.55271e-14 0 0)
(-7.10542e-15 0 0)
(5.68434e-14 0 0)
(5.68434e-14 0 0)
(-3.55271e-14 0 0)
(-1.42108e-14 0 0)
(-1.42108e-14 0 0)
(5.68434e-14 0 0)
(1.13687e-13 0 0)
(7.10543e-14 0 0)
(4.97381e-14 0 0)
(9.23707e-14 0 0)
(9.23708e-14 0 0)
(2.4869e-13 0 0)
(3.90799e-13 0 0)
(5.04486e-13 0 0)
(7.67387e-13 0 0)
(1.03029e-12 0 0)
(1.49214e-12 0 0)
(2.11742e-12 0 0)
(3.01271e-12 0 0)
(4.27037e-12 0 0)
(6.04673e-12 0 0)
(8.491e-12 0 0)
(1.19727e-11 0 0)
(1.68399e-11 0 0)
(2.34693e-11 0 0)
(3.27703e-11 0 0)
(4.55601e-11 0 0)
(6.31815e-11 0 0)
(8.73329e-11 0 0)
(1.20188e-10 0 0)
(1.6513e-10 0 0)
(2.26194e-10 0 0)
(3.08831e-10 0 0)
(4.20535e-10 0 0)
(5.70744e-10 0 0)
(7.72091e-10 0 0)
(1.04147e-09 0 0)
(1.40049e-09 0 0)
(1.87726e-09 0 0)
(2.50844e-09 0 0)
(3.34125e-09 0 0)
(4.43649e-09 0 0)
(5.87173e-09 0 0)
(7.74611e-09 0 0)
(1.01857e-08 0 0)
(1.33498e-08 0 0)
(1.74393e-08 0 0)
(2.27058e-08 0 0)
(2.94638e-08 0 0)
(3.81049e-08 0 0)
(4.91131e-08 0 0)
(6.30853e-08 0 0)
(8.07538e-08 0 0)
(1.03012e-07 0 0)
(1.30947e-07 0 0)
(1.65872e-07 0 0)
(2.09365e-07 0 0)
(2.63318e-07 0 0)
(3.29981e-07 0 0)
(4.12016e-07 0 0)
(5.12559e-07 0 0)
(6.3528e-07 0 0)
(7.84447e-07 0 0)
(9.64992e-07 0 0)
(1.18258e-06 0 0)
(1.44368e-06 0 0)
(1.75561e-06 0 0)
(2.1266e-06 0 0)
(2.56582e-06 0 0)
(3.08343e-06 0 0)
(3.69056e-06 0 0)
(4.3993e-06 0 0)
(5.22263e-06 0 0)
(6.17435e-06 0 0)
(7.26894e-06 0 0)
(8.52138e-06 0 0)
(9.9469e-06 0 0)
(1.15608e-05 0 0)
(1.33779e-05 0 0)
(1.54123e-05 0 0)
(1.76771e-05 0 0)
(2.01835e-05 0 0)
(2.29407e-05 0 0)
(2.59549e-05 0 0)
(2.92293e-05 0 0)
(3.27632e-05 0 0)
(3.65514e-05 0 0)
(4.0584e-05 0 0)
(4.4846e-05 0 0)
(4.93169e-05 0 0)
(5.39705e-05 0 0)
(5.87752e-05 0 0)
(6.36938e-05 0 0)
(6.86839e-05 0 0)
(7.36987e-05 0 0)
(7.86873e-05 0 0)
(8.35956e-05 0 0)
(8.83676e-05 0 0)
(9.2946e-05 0 0)
(9.72737e-05 0 0)
(0.000101295 0 0)
(0.000104956 0 0)
(0.000108209 0 0)
(0.000111007 0 0)
(0.000113312 0 0)
(0.000115092 0 0)
(0.000116321 0 0)
(0.000116983 0 0)
(0.000117069 0 0)
(0.000116576 0 0)
(0.000115512 0 0)
(0.00011389 0 0)
(0.000111733 0 0)
(0.000109066 0 0)
(0.000105924 0 0)
(0.000102345 0 0)
(9.83685e-05 0 0)
(9.40404e-05 0 0)
(8.94064e-05 0 0)
(8.45141e-05 0 0)
(7.9411e-05 0 0)
(7.41439e-05 0 0)
(6.87586e-05 0 0)
(6.32989e-05 0 0)
(5.78064e-05 0 0)
(5.232e-05 0 0)
(4.68752e-05 0 0)
(4.15047e-05 0 0)
(3.62376e-05 0 0)
(3.10996e-05 0 0)
(2.61129e-05 0 0)
(2.12967e-05 0 0)
(1.66665e-05 0 0)
(1.2235e-05 0 0)
(8.012e-06 0 0)
(4.00457e-06 0 0)
(2.17311e-07 0 0)
(-3.34739e-06 0 0)
(-6.68917e-06 0 0)
(-9.80944e-06 0 0)
(-1.27112e-05 0 0)
(-1.53987e-05 0 0)
(-1.78775e-05 0 0)
(-2.0154e-05 0 0)
(-2.22355e-05 0 0)
(-2.41297e-05 0 0)
(-2.5845e-05 0 0)
(-2.73901e-05 0 0)
(-2.87738e-05 0 0)
(-3.00052e-05 0 0)
(-3.10933e-05 0 0)
(-3.20472e-05 0 0)
(-3.28758e-05 0 0)
(-3.35876e-05 0 0)
(-3.41914e-05 0 0)
(-3.46951e-05 0 0)
(-3.51069e-05 0 0)
(-3.54342e-05 0 0)
(-3.56842e-05 0 0)
(-3.58639e-05 0 0)
(-3.59797e-05 0 0)
(-3.60377e-05 0 0)
(-3.60438e-05 0 0)
(-3.60032e-05 0 0)
(-3.5921e-05 0 0)
(-3.58018e-05 0 0)
(-3.56498e-05 0 0)
(-3.54691e-05 0 0)
(-3.52633e-05 0 0)
(-3.50357e-05 0 0)
(-3.47893e-05 0 0)
(-3.45269e-05 0 0)
(-3.4251e-05 0 0)
(-3.39638e-05 0 0)
(-3.36673e-05 0 0)
(-3.33634e-05 0 0)
(-3.30537e-05 0 0)
(-3.27396e-05 0 0)
(-3.24223e-05 0 0)
(-3.21031e-05 0 0)
(-3.17829e-05 0 0)
(-3.14625e-05 0 0)
(-3.11427e-05 0 0)
(-3.08241e-05 0 0)
(-3.05074e-05 0 0)
(-3.01929e-05 0 0)
(-2.98811e-05 0 0)
(-2.95723e-05 0 0)
(-2.92668e-05 0 0)
(-2.89648e-05 0 0)
(-2.86666e-05 0 0)
(-2.83723e-05 0 0)
(-2.80819e-05 0 0)
(-2.77957e-05 0 0)
(-2.75136e-05 0 0)
(-2.72357e-05 0 0)
(-2.6962e-05 0 0)
(-2.66925e-05 0 0)
(-2.64272e-05 0 0)
(-2.61662e-05 0 0)
(-2.59093e-05 0 0)
(-2.56566e-05 0 0)
(-2.5408e-05 0 0)
(-2.51634e-05 0 0)
(-2.49229e-05 0 0)
(-2.46862e-05 0 0)
(-2.44535e-05 0 0)
(-2.42245e-05 0 0)
(-2.39993e-05 0 0)
(-2.37778e-05 0 0)
(-2.35599e-05 0 0)
(-2.33455e-05 0 0)
(-2.31346e-05 0 0)
(-2.2927e-05 0 0)
(-2.27228e-05 0 0)
(-2.25218e-05 0 0)
(-2.2324e-05 0 0)
(-2.21292e-05 0 0)
(-2.19375e-05 0 0)
(-2.17487e-05 0 0)
(-2.15627e-05 0 0)
(-2.13795e-05 0 0)
(-2.1199e-05 0 0)
(-2.10211e-05 0 0)
(-2.08457e-05 0 0)
(-2.06728e-05 0 0)
(-2.05023e-05 0 0)
(-2.0334e-05 0 0)
(-2.0168e-05 0 0)
(-2.00041e-05 0 0)
(-1.98422e-05 0 0)
(-1.96824e-05 0 0)
(-1.95244e-05 0 0)
(-1.93683e-05 0 0)
(-1.92139e-05 0 0)
(-1.90613e-05 0 0)
(-1.89103e-05 0 0)
(-1.87608e-05 0 0)
(-1.86128e-05 0 0)
(-1.84663e-05 0 0)
(-1.83212e-05 0 0)
(-1.81774e-05 0 0)
(-1.80349e-05 0 0)
(-1.78936e-05 0 0)
(-1.77535e-05 0 0)
(-1.76146e-05 0 0)
(-1.74768e-05 0 0)
(-1.73401e-05 0 0)
(-1.72044e-05 0 0)
(-1.70698e-05 0 0)
(-1.69362e-05 0 0)
(-1.68036e-05 0 0)
(-1.66719e-05 0 0)
(-1.65413e-05 0 0)
(-1.64116e-05 0 0)
(-1.62829e-05 0 0)
(-1.61551e-05 0 0)
(-1.60282e-05 0 0)
(-1.59023e-05 0 0)
(-1.57774e-05 0 0)
(-1.56534e-05 0 0)
(-1.55304e-05 0 0)
(-1.54083e-05 0 0)
(-1.52872e-05 0 0)
(-1.51671e-05 0 0)
(-1.50479e-05 0 0)
(-1.49298e-05 0 0)
(-1.48126e-05 0 0)
(-1.46965e-05 0 0)
(-1.45813e-05 0 0)
(-1.44672e-05 0 0)
(-1.43541e-05 0 0)
(-1.4242e-05 0 0)
(-1.4131e-05 0 0)
(-1.40209e-05 0 0)
(-1.3912e-05 0 0)
(-1.3804e-05 0 0)
(-1.36972e-05 0 0)
(-1.35913e-05 0 0)
(-1.34865e-05 0 0)
(-1.33828e-05 0 0)
(-1.328e-05 0 0)
(-1.31783e-05 0 0)
(-1.30777e-05 0 0)
(-1.29781e-05 0 0)
(-1.28794e-05 0 0)
(-1.27818e-05 0 0)
(-1.26852e-05 0 0)
(-1.25896e-05 0 0)
(-1.24949e-05 0 0)
(-1.24012e-05 0 0)
(-1.23085e-05 0 0)
(-1.22166e-05 0 0)
(-1.21257e-05 0 0)
(-1.20357e-05 0 0)
(-1.19466e-05 0 0)
(-1.18584e-05 0 0)
(-1.1771e-05 0 0)
(-1.16844e-05 0 0)
(-1.15986e-05 0 0)
(-1.15137e-05 0 0)
(-1.14295e-05 0 0)
(-1.13461e-05 0 0)
(-1.12634e-05 0 0)
(-1.11815e-05 0 0)
(-1.11002e-05 0 0)
(-1.10196e-05 0 0)
(-1.09397e-05 0 0)
(-1.08605e-05 0 0)
(-1.07819e-05 0 0)
(-1.07039e-05 0 0)
(-1.06265e-05 0 0)
(-1.05497e-05 0 0)
(-1.04735e-05 0 0)
(-1.03979e-05 0 0)
(-1.03228e-05 0 0)
(-1.02483e-05 0 0)
(-1.01743e-05 0 0)
(-1.01009e-05 0 0)
(-1.0028e-05 0 0)
(-9.95557e-06 0 0)
(-9.88369e-06 0 0)
(-9.81232e-06 0 0)
(-9.74146e-06 0 0)
(-9.67111e-06 0 0)
(-9.60125e-06 0 0)
(-9.53189e-06 0 0)
(-9.46302e-06 0 0)
(-9.39464e-06 0 0)
(-9.32675e-06 0 0)
(-9.25935e-06 0 0)
(-9.19243e-06 0 0)
(-9.12599e-06 0 0)
(-9.06003e-06 0 0)
(-8.99455e-06 0 0)
(-8.92954e-06 0 0)
(-8.86501e-06 0 0)
(-8.80094e-06 0 0)
(-8.73735e-06 0 0)
(-8.67422e-06 0 0)
(-8.61157e-06 0 0)
(-8.54938e-06 0 0)
(-8.48766e-06 0 0)
(-8.4264e-06 0 0)
(-8.36561e-06 0 0)
(-8.30528e-06 0 0)
(-8.24541e-06 0 0)
(-8.186e-06 0 0)
(-8.12704e-06 0 0)
(-8.06854e-06 0 0)
(-8.01049e-06 0 0)
(-7.95287e-06 0 0)
(-7.89569e-06 0 0)
(-7.83893e-06 0 0)
(-7.78258e-06 0 0)
(-7.72665e-06 0 0)
(-7.67112e-06 0 0)
(-7.61599e-06 0 0)
(-7.56126e-06 0 0)
(-7.50692e-06 0 0)
(-7.453e-06 0 0)
(-7.39948e-06 0 0)
(-7.3464e-06 0 0)
(-7.29375e-06 0 0)
(-7.24155e-06 0 0)
(-7.1898e-06 0 0)
(-7.13849e-06 0 0)
(-7.08762e-06 0 0)
(-7.03715e-06 0 0)
(-6.98706e-06 0 0)
(-6.9373e-06 0 0)
(-6.88782e-06 0 0)
(-6.83855e-06 0 0)
(-6.78945e-06 0 0)
(-6.74046e-06 0 0)
(-6.69158e-06 0 0)
(-6.64278e-06 0 0)
(-6.59413e-06 0 0)
(-6.54561e-06 0 0)
(-6.49743e-06 0 0)
(-6.44948e-06 0 0)
(-6.40219e-06 0 0)
(-6.3551e-06 0 0)
(-6.30916e-06 0 0)
(-6.26297e-06 0 0)
(-6.21878e-06 0 0)
(-6.17297e-06 0 0)
(-6.13097e-06 0 0)
(-6.0842e-06 0 0)
(-6.04531e-06 0 0)
(-5.99516e-06 0 0)
(-5.96153e-06 0 0)
(-5.90414e-06 0 0)
(-5.87992e-06 0 0)
(-5.80972e-06 0 0)
(-5.80133e-06 0 0)
(-5.71168e-06 0 0)
(-5.72612e-06 0 0)
(-5.6123e-06 0 0)
(-5.65207e-06 0 0)
(-5.51819e-06 0 0)
(-5.57188e-06 0 0)
(-5.44113e-06 0 0)
(-5.47307e-06 0 0)
(-5.39515e-06 0 0)
(-5.34452e-06 0 0)
(-5.38756e-06 0 0)
(-5.19053e-06 0 0)
(-5.40922e-06 0 0)
(-5.04649e-06 0 0)
(-5.43208e-06 0 0)
(-4.97373e-06 0 0)
(-5.10526e-06 0 0)
(-4.92809e-06 0 0)
(-5.29765e-06 0 0)
(-4.58068e-06 0 0)
(-8.58421e-06 0 0)
(-2.01097e-06 0 0)
(-7.77227e-06 0 0)
(-2.00591e-06 0 0)
(-8.72049e-06 0 0)
(-6.26837e-07 0 0)
(-2.16629e-06 0 0)
(-5.86276e-06 0 0)
(2.03205e-06 0 0)
(-1.16575e-05 0 0)
(-3.46566e-06 0 0)
(-7.34448e-06 0 0)
(-3.2929e-06 0 0)
(-7.07764e-06 0 0)
(-3.01648e-06 0 0)
(-3.63571e-06 0 0)
(-5.44088e-05 0 0)
(4.83509e-05 0 0)
(-3.8088e-06 0 0)
(-1.06598e-05 0 0)
(5.0908e-06 0 0)
(-9.6457e-06 0 0)
(-6.2749e-06 0 0)
(-4.14182e-06 0 0)
(1.25499e-06 0 0)
(-8.26321e-06 0 0)
(-6.26008e-06 0 0)
(-2.19784e-06 0 0)
(-2.82384e-06 0 0)
(-5.01246e-06 0 0)
(-5.69721e-06 0 0)
(-2.41649e-06 0 0)
(-3.90087e-06 0 0)
(-4.24486e-06 0 0)
(-4.34062e-06 0 0)
(-2.63585e-06 0 0)
(-3.12138e-06 0 0)
(-3.70664e-06 0 0)
(-2.61011e-06 0 0)
(-5.04511e-06 0 0)
(-2.56762e-06 0 0)
(-5.09242e-06 0 0)
(7.82414e-06 0 0)
(-1.30364e-05 0 0)
(-1.44979e-05 0 0)
(6.28594e-06 0 0)
(3.6569e-06 0 0)
(-8.16211e-06 0 0)
(-1.08366e-05 0 0)
(2.29155e-06 0 0)
(-2.24019e-06 0 0)
(-4.23137e-06 0 0)
(-4.30836e-06 0 0)
(-3.4636e-06 0 0)
(-4.70825e-06 0 0)
(-2.15758e-06 0 0)
(-3.27888e-06 0 0)
(-2.34387e-06 0 0)
(-1.61716e-06 0 0)
(-3.74616e-06 0 0)
(-2.965e-06 0 0)
(-3.2623e-06 0 0)
(-4.07814e-06 0 0)
(-2.4238e-06 0 0)
(-2.90755e-06 0 0)
(-2.90124e-06 0 0)
(-1.71315e-06 0 0)
(-3.59079e-06 0 0)
(-2.4649e-06 0 0)
(-3.16881e-06 0 0)
(-4.07924e-06 0 0)
(-2.06229e-06 0 0)
(-3.89825e-06 0 0)
(-1.91469e-06 0 0)
(-2.25457e-06 0 0)
(-2.79953e-06 0 0)
(-1.77818e-06 0 0)
(-3.16979e-06 0 0)
(-2.88729e-06 0 0)
(-2.52081e-06 0 0)
(-3.37449e-06 0 0)
(-2.06553e-06 0 0)
(-2.30645e-06 0 0)
(-2.61073e-06 0 0)
(-1.15427e-06 0 0)
(-3.48165e-06 0 0)
(-7.39172e-07 0 0)
(-3.97868e-06 0 0)
(-5.87529e-07 0 0)
(-4.09219e-06 0 0)
(-8.77706e-07 0 0)
(-3.71872e-06 0 0)
(-1.96415e-06 0 0)
(-2.78573e-06 0 0)
(-2.93418e-06 0 0)
(-1.87485e-06 0 0)
(-3.04684e-06 0 0)
(-1.52109e-06 0 0)
(-2.7826e-06 0 0)
(-1.55217e-06 0 0)
(-2.48267e-06 0 0)
(-1.66134e-06 0 0)
(-2.25037e-06 0 0)
(-1.66527e-06 0 0)
(-2.56395e-06 0 0)
(-1.41644e-06 0 0)
(-2.96043e-06 0 0)
(-1.29249e-06 0 0)
(-2.20213e-06 0 0)
(-1.92575e-06 0 0)
(-4.49448e-07 0 0)
(-3.09158e-06 0 0)
(7.80377e-07 0 0)
(-3.76752e-06 0 0)
(1.85021e-07 0 0)
(-3.18118e-06 0 0)
(-2.28673e-06 0 0)
(-1.44862e-06 0 0)
(-4.96993e-06 0 0)
(6.25761e-07 0 0)
(-6.29769e-06 0 0)
(2.41188e-06 0 0)
(-6.73801e-06 0 0)
(3.64364e-06 0 0)
(-7.23794e-06 0 0)
(3.9073e-06 0 0)
(-7.01573e-06 0 0)
(3.01894e-06 0 0)
(-3.7977e-06 0 0)
(1.10109e-06 0 0)
(2.65755e-06 0 0)
(-2.50273e-06 0 0)
(7.50331e-06 0 0)
(-8.08066e-06 0 0)
(5.58293e-06 0 0)
(-1.12519e-05 0 0)
(-1.7988e-06 0 0)
(-3.83878e-06 0 0)
(-1.03658e-05 0 0)
(1.34222e-05 0 0)
(-2.01831e-05 0 0)
(2.40954e-05 0 0)
(-2.87674e-05 0 0)
(1.72339e-05 0 0)
(-2.27685e-05 0 0)
(6.0337e-06 0 0)
(-7.90781e-07 0 0)
(4.15442e-06 0 0)
(1.68501e-05 0 0)
(5.51053e-06 0 0)
(1.30098e-05 0 0)
(-3.11732e-06 0 0)
(-7.51627e-06 0 0)
(-1.39281e-05 0 0)
(-4.01297e-06 0 0)
(-4.47836e-06 0 0)
(1.15606e-05 0 0)
(9.08909e-06 0 0)
(1.95966e-05 0 0)
(6.32777e-06 0 0)
(1.88701e-05 0 0)
(1.02836e-06 0 0)
(1.58356e-05 0 0)
(3.06716e-06 0 0)
(1.85622e-05 0 0)
(8.13588e-06 0 0)
(3.12199e-05 0 0)
(4.21522e-06 0 0)
(4.43379e-05 0 0)
(-4.27992e-06 0 0)
(2.02254e-06 0 0)
(-0.000137406 0 0)
(8.25511e-05 0 0)
(0.000147642 0 0)
(-0.000104192 0 0)
(-1.72098e-05 0 0)
(-2.43863e-05 0 0)
(-1.0449e-05 0 0)
(-4.02183e-05 0 0)
(-2.84266e-05 0 0)
(-4.04661e-05 0 0)
(-0.000106084 0 0)
(-7.4278e-06 0 0)
(4.11318e-05 0 0)
(-6.35632e-05 0 0)
(-2.97027e-06 0 0)
(-3.07418e-05 0 0)
(-5.65747e-05 0 0)
(-2.89631e-05 0 0)
(-2.80536e-05 0 0)
(2.38235e-06 0 0)
(2.32441e-05 0 0)
(2.94866e-05 0 0)
(9.00198e-06 0 0)
(1.15902e-05 0 0)
(9.50728e-06 0 0)
(8.93632e-06 0 0)
(3.63723e-05 0 0)
(3.11592e-05 0 0)
(2.66655e-05 0 0)
(3.08973e-05 0 0)
(8.47498e-06 0 0)
(1.63381e-05 0 0)
(1.21415e-05 0 0)
(1.39598e-05 0 0)
(1.27528e-05 0 0)
(1.73272e-05 0 0)
(3.13259e-06 0 0)
(1.85462e-05 0 0)
(-4.69531e-06 0 0)
(2.10663e-05 0 0)
(-7.63994e-06 0 0)
(2.71254e-05 0 0)
(-5.16244e-06 0 0)
(3.28451e-05 0 0)
(2.82171e-06 0 0)
(3.27655e-05 0 0)
(1.98629e-05 0 0)
(2.86837e-05 0 0)
(4.40418e-05 0 0)
(2.27557e-05 0 0)
(6.13991e-05 0 0)
(1.91809e-05 0 0)
(6.85771e-05 0 0)
(3.08317e-05 0 0)
(6.7618e-05 0 0)
(5.5615e-05 0 0)
(6.07226e-05 0 0)
(7.8253e-05 0 0)
(6.75102e-05 0 0)
(9.6257e-05 0 0)
(9.50314e-05 0 0)
(0.000111525 0 0)
(0.000121828 0 0)
(0.000129217 0 0)
(0.000139612 0 0)
(0.000161191 0 0)
(0.00016769 0 0)
(0.00020465 0 0)
(0.000215977 0 0)
(0.000238004 0 0)
(0.000317565 0 0)
(0.000259931 0 0)
(0.000449503 0 0)
(0.000249083 0 0)
(0.000734895 0 0)
(0.000205187 0 0)
(0.00101788 0 0)
(8.1061e-05 0 0)
(0.00132048 0 0)
(0.000282893 0 0)
(0.000867674 0 0)
(0.00100206 0 0)
(0.000139961 0 0)
(0.0025529 0 0)
(-0.00115616 0 0)
(0.00460867 0 0)
(-0.000632436 0 0)
(0.004727 0 0)
(0.00507937 0 0)
(-0.000287556 0 0)
(0.00812414 0 0)
(0.000689336 0 0)
(0.00125744 0 0)
(0.00575763 0 0)
(0.0283312 0 0)
(-0.0292124 0 0)
(0.0559466 0 0)
(0.0198202 0 0)
(-0.107509 0 0)
(-0.0451 0 0)
(0.0531548 0 0)
)
;

boundaryField
{
    sideLeft
    {
        type            symmetryPlane;
    }
    sideRight
    {
        type            calculated;
        value           uniform (-0.939789 0 0);
    }
    topbottom
    {
        type            empty;
    }
    frontback
    {
        type            empty;
    }
}


// ************************************************************************* //
