/*--------------------------------*- C++ -*----------------------------------*\
| =========                 |                                                 |
| \\      /  F ield         | OpenFOAM: The Open Source CFD Toolbox           |
|  \\    /   O peration     | Version:  2.4.0                                 |
|   \\  /    A nd           | Web:      www.OpenFOAM.org                      |
|    \\/     M anipulation  |                                                 |
\*---------------------------------------------------------------------------*/
FoamFile
{
    version     2.0;
    format      ascii;
    class       volScalarField;
    location    "0.11";
    object      p;
}
// * * * * * * * * * * * * * * * * * * * * * * * * * * * * * * * * * * * * * //

dimensions      [1 -1 -2 0 0 0 0];

internalField   nonuniform List<scalar> 
1000
(
5e+06
5e+06
5e+06
5e+06
5e+06
5e+06
5e+06
5e+06
5e+06
5e+06
5e+06
5e+06
5e+06
5e+06
5e+06
5e+06
5e+06
5e+06
5e+06
5e+06
5e+06
5e+06
5e+06
5e+06
5e+06
5e+06
5e+06
5e+06
5e+06
5e+06
5e+06
5e+06
5e+06
5e+06
5e+06
5e+06
5e+06
5e+06
5e+06
5e+06
5e+06
5e+06
5e+06
5e+06
5e+06
5e+06
5e+06
5e+06
5e+06
5e+06
5e+06
5e+06
5e+06
5e+06
5e+06
5e+06
5e+06
5e+06
5e+06
5e+06
5e+06
5e+06
5e+06
5e+06
5e+06
5e+06
5e+06
5e+06
5e+06
5e+06
5e+06
5e+06
5e+06
5e+06
5e+06
5e+06
5e+06
5e+06
5e+06
5e+06
5e+06
5e+06
5e+06
5e+06
5e+06
5e+06
5e+06
5e+06
5e+06
5e+06
5e+06
5e+06
5e+06
5e+06
5e+06
5e+06
5e+06
5e+06
5e+06
5e+06
5e+06
5e+06
5e+06
5e+06
5e+06
5e+06
5e+06
5e+06
5e+06
5e+06
5e+06
5e+06
5e+06
5e+06
5e+06
5e+06
5e+06
5e+06
5e+06
5e+06
5e+06
5e+06
5e+06
5e+06
5e+06
5e+06
5e+06
5e+06
5e+06
5e+06
5e+06
5e+06
5e+06
5e+06
5e+06
5e+06
5e+06
5e+06
5e+06
5e+06
5e+06
5e+06
5e+06
5e+06
5e+06
5e+06
5e+06
5e+06
5e+06
5e+06
5e+06
5e+06
5e+06
5e+06
5e+06
5e+06
5e+06
5e+06
5e+06
5e+06
5e+06
5e+06
5e+06
5e+06
5e+06
5e+06
5e+06
5e+06
5e+06
5e+06
5e+06
5e+06
5e+06
5e+06
5e+06
5e+06
5e+06
5e+06
5e+06
5e+06
5e+06
5e+06
5e+06
5e+06
5e+06
5e+06
5e+06
5e+06
5e+06
5e+06
5e+06
5e+06
5e+06
5e+06
5e+06
5e+06
5e+06
5e+06
5e+06
5e+06
5e+06
5e+06
5e+06
5e+06
5e+06
5e+06
5e+06
5e+06
5e+06
5e+06
5e+06
5e+06
5e+06
5e+06
5e+06
5e+06
5e+06
5e+06
5e+06
5e+06
5e+06
5e+06
5e+06
5e+06
5e+06
5e+06
5e+06
5e+06
5e+06
5e+06
5e+06
5e+06
5e+06
5e+06
5e+06
5e+06
5e+06
5e+06
5e+06
5e+06
5e+06
5e+06
5e+06
5e+06
5e+06
5e+06
5e+06
5e+06
5e+06
5e+06
5e+06
5e+06
5e+06
5e+06
5e+06
5e+06
5e+06
5e+06
5e+06
5e+06
5e+06
5e+06
5e+06
5e+06
5e+06
5e+06
5e+06
5e+06
5e+06
5e+06
5e+06
5e+06
5e+06
5e+06
5e+06
5e+06
5e+06
5e+06
5e+06
5e+06
5e+06
5e+06
5e+06
5e+06
5e+06
5e+06
5e+06
5e+06
5e+06
5e+06
5e+06
5e+06
5e+06
5e+06
5e+06
5e+06
5e+06
5e+06
5e+06
5e+06
5e+06
5e+06
5e+06
5e+06
5e+06
5e+06
5e+06
5e+06
5e+06
5e+06
5e+06
5e+06
5e+06
5e+06
5e+06
5e+06
5e+06
5e+06
5e+06
5e+06
5e+06
5e+06
5e+06
5e+06
5e+06
5e+06
5e+06
5e+06
5e+06
5e+06
5e+06
5e+06
5e+06
5e+06
5e+06
5e+06
5e+06
5e+06
5e+06
5e+06
5e+06
5e+06
5e+06
5e+06
5e+06
5e+06
5e+06
5e+06
5e+06
5e+06
5e+06
5e+06
5e+06
5e+06
5e+06
5e+06
5e+06
5e+06
5e+06
5e+06
5e+06
5e+06
5e+06
5e+06
5e+06
5e+06
5e+06
5e+06
5e+06
5e+06
5e+06
5e+06
5e+06
5e+06
5e+06
5e+06
5e+06
5e+06
5e+06
5e+06
5e+06
5e+06
5e+06
5e+06
5e+06
5e+06
5e+06
5e+06
5e+06
5e+06
5e+06
5e+06
5e+06
5e+06
5e+06
5e+06
5e+06
5e+06
5e+06
5e+06
5e+06
5e+06
5e+06
5e+06
5e+06
5e+06
5e+06
5e+06
5e+06
5e+06
5e+06
5e+06
5e+06
5e+06
5e+06
5e+06
5e+06
5e+06
5e+06
5e+06
5e+06
5e+06
5e+06
5e+06
5e+06
5e+06
5e+06
5e+06
5e+06
5e+06
5e+06
5e+06
5e+06
5e+06
5e+06
5e+06
5e+06
5e+06
5e+06
5e+06
5e+06
5e+06
5e+06
5e+06
5e+06
5e+06
5e+06
5e+06
5e+06
5e+06
5e+06
5e+06
5e+06
5e+06
5e+06
5e+06
5e+06
5e+06
5e+06
5e+06
5e+06
5e+06
5e+06
5e+06
5e+06
5e+06
5e+06
5e+06
5e+06
5e+06
5e+06
5e+06
5e+06
5e+06
5e+06
5e+06
5e+06
5e+06
5e+06
5e+06
5e+06
5e+06
5e+06
5e+06
5e+06
5e+06
5e+06
5e+06
5e+06
5e+06
5e+06
5e+06
5e+06
5e+06
5e+06
5e+06
5e+06
5e+06
5e+06
5e+06
5e+06
5e+06
5e+06
5e+06
5e+06
5e+06
5e+06
5e+06
5e+06
5e+06
5e+06
5e+06
5e+06
5e+06
5e+06
5e+06
5e+06
5e+06
5e+06
5e+06
5e+06
5e+06
5e+06
5e+06
5e+06
5e+06
5e+06
5e+06
5e+06
5e+06
5e+06
5e+06
5e+06
5e+06
5e+06
5e+06
5e+06
5e+06
5e+06
5e+06
5e+06
5e+06
5e+06
5e+06
5e+06
5e+06
5e+06
5e+06
5e+06
5e+06
5e+06
5e+06
5e+06
5e+06
5e+06
5e+06
5e+06
5e+06
5e+06
5e+06
5e+06
5e+06
5e+06
5e+06
5e+06
5e+06
5e+06
5e+06
5e+06
5e+06
5e+06
5e+06
5e+06
5e+06
5e+06
5e+06
5e+06
5e+06
5e+06
5e+06
5e+06
5e+06
5e+06
5e+06
5e+06
5e+06
5e+06
5e+06
5e+06
5e+06
5e+06
5e+06
5e+06
5e+06
5e+06
5e+06
5e+06
5e+06
5e+06
5e+06
5e+06
5e+06
5e+06
5e+06
5e+06
5e+06
5e+06
5e+06
5e+06
5e+06
5e+06
5e+06
5e+06
5e+06
5e+06
5e+06
5e+06
5e+06
5e+06
5e+06
5e+06
5e+06
5e+06
5e+06
4.99999e+06
4.99999e+06
4.99999e+06
4.99999e+06
4.99998e+06
4.99998e+06
4.99997e+06
4.99996e+06
4.99994e+06
4.99993e+06
4.9999e+06
4.99987e+06
4.99983e+06
4.99978e+06
4.99972e+06
4.99964e+06
4.99954e+06
4.99942e+06
4.99927e+06
4.99909e+06
4.99886e+06
4.99858e+06
4.99825e+06
4.99785e+06
4.99738e+06
4.99682e+06
4.99615e+06
4.99538e+06
4.99448e+06
4.99343e+06
4.99223e+06
4.99086e+06
4.9893e+06
4.98753e+06
4.98556e+06
4.98335e+06
4.98089e+06
4.97818e+06
4.97521e+06
4.97196e+06
4.96843e+06
4.96461e+06
4.96051e+06
4.95611e+06
4.95142e+06
4.94644e+06
4.94118e+06
4.93564e+06
4.92983e+06
4.92377e+06
4.91745e+06
4.9109e+06
4.90412e+06
4.89713e+06
4.88995e+06
4.88258e+06
4.87504e+06
4.86735e+06
4.85952e+06
4.85156e+06
4.84348e+06
4.83531e+06
4.82704e+06
4.8187e+06
4.81029e+06
4.80182e+06
4.7933e+06
4.78474e+06
4.77615e+06
4.76753e+06
4.7589e+06
4.75024e+06
4.74158e+06
4.73291e+06
4.72424e+06
4.71557e+06
4.7069e+06
4.69824e+06
4.68959e+06
4.68095e+06
4.67231e+06
4.66369e+06
4.65508e+06
4.64649e+06
4.6379e+06
4.62933e+06
4.62077e+06
4.61223e+06
4.6037e+06
4.59519e+06
4.58668e+06
4.57819e+06
4.56972e+06
4.56126e+06
4.55281e+06
4.54437e+06
4.53594e+06
4.52753e+06
4.51912e+06
4.51073e+06
4.50235e+06
4.49398e+06
4.48562e+06
4.47726e+06
4.46892e+06
4.46059e+06
4.45227e+06
4.44395e+06
4.43564e+06
4.42734e+06
4.41905e+06
4.41077e+06
4.40249e+06
4.39422e+06
4.38596e+06
4.3777e+06
4.36945e+06
4.3612e+06
4.35296e+06
4.34473e+06
4.3365e+06
4.32828e+06
4.32006e+06
4.31185e+06
4.30364e+06
4.29544e+06
4.28724e+06
4.27905e+06
4.27086e+06
4.26268e+06
4.2545e+06
4.24632e+06
4.23815e+06
4.22999e+06
4.22182e+06
4.21367e+06
4.20551e+06
4.19736e+06
4.18921e+06
4.18107e+06
4.17293e+06
4.1648e+06
4.15666e+06
4.14854e+06
4.14041e+06
4.13229e+06
4.12417e+06
4.11606e+06
4.10795e+06
4.09984e+06
4.09173e+06
4.08363e+06
4.07553e+06
4.06743e+06
4.05933e+06
4.05124e+06
4.04315e+06
4.03506e+06
4.02697e+06
4.01888e+06
4.01079e+06
4.00271e+06
3.99462e+06
3.98654e+06
3.97845e+06
3.97037e+06
3.96228e+06
3.9542e+06
3.94611e+06
3.93803e+06
3.92994e+06
3.92185e+06
3.91376e+06
3.90567e+06
3.89758e+06
3.88948e+06
3.88139e+06
3.87329e+06
3.86518e+06
3.85708e+06
3.84897e+06
3.84086e+06
3.83275e+06
3.82463e+06
3.81651e+06
3.80839e+06
3.80026e+06
3.79213e+06
3.784e+06
3.77586e+06
3.76771e+06
3.75956e+06
3.75141e+06
3.74325e+06
3.73508e+06
3.72691e+06
3.71873e+06
3.71055e+06
3.70236e+06
3.69416e+06
3.68596e+06
3.67775e+06
3.66953e+06
3.6613e+06
3.65306e+06
3.64482e+06
3.63657e+06
3.62831e+06
3.62004e+06
3.61176e+06
3.60346e+06
3.59516e+06
3.58685e+06
3.57853e+06
3.57019e+06
3.56184e+06
3.55349e+06
3.54511e+06
3.53673e+06
3.52833e+06
3.51992e+06
3.51149e+06
3.50305e+06
3.49459e+06
3.48612e+06
3.47763e+06
3.46912e+06
3.4606e+06
3.45206e+06
3.4435e+06
3.43492e+06
3.42633e+06
3.41771e+06
3.40907e+06
3.40041e+06
3.39173e+06
3.38303e+06
3.37431e+06
3.36556e+06
3.35678e+06
3.34798e+06
3.33915e+06
3.33029e+06
3.32142e+06
3.3125e+06
3.30356e+06
3.29459e+06
3.28559e+06
3.27655e+06
3.26749e+06
3.25838e+06
3.24923e+06
3.24005e+06
3.23082e+06
3.22157e+06
3.21226e+06
3.20294e+06
3.19356e+06
3.1841e+06
3.17462e+06
3.16508e+06
3.1555e+06
3.14586e+06
3.13616e+06
3.12641e+06
3.1166e+06
3.10672e+06
3.09678e+06
3.08679e+06
3.07673e+06
3.06661e+06
3.05643e+06
3.0462e+06
3.03594e+06
3.02566e+06
3.01539e+06
3.00516e+06
2.99505e+06
2.98512e+06
2.97537e+06
2.96576e+06
2.95624e+06
2.94675e+06
2.93724e+06
2.9277e+06
2.91812e+06
2.90848e+06
2.89881e+06
2.88911e+06
2.87941e+06
2.86971e+06
2.86001e+06
2.85032e+06
2.84064e+06
2.83095e+06
2.82127e+06
2.81159e+06
2.8019e+06
2.79221e+06
2.78253e+06
2.77284e+06
2.76317e+06
2.75349e+06
2.74383e+06
2.73418e+06
2.72454e+06
2.71491e+06
2.70529e+06
2.69568e+06
2.68609e+06
2.67651e+06
2.66695e+06
2.65741e+06
2.64788e+06
2.63838e+06
2.6289e+06
2.61945e+06
2.61002e+06
2.60062e+06
2.59125e+06
2.58192e+06
2.57262e+06
2.56336e+06
2.55413e+06
2.54494e+06
2.5358e+06
2.5267e+06
2.51765e+06
2.50865e+06
2.49971e+06
2.49082e+06
2.482e+06
2.47324e+06
2.46455e+06
2.45592e+06
2.44736e+06
2.43887e+06
2.43046e+06
2.42215e+06
2.41395e+06
2.40585e+06
2.39785e+06
2.38994e+06
2.3821e+06
2.37437e+06
2.36678e+06
2.35936e+06
2.35216e+06
2.34519e+06
2.33842e+06
2.33183e+06
2.32539e+06
2.31911e+06
2.31301e+06
2.30715e+06
2.30159e+06
2.29639e+06
2.29161e+06
2.28726e+06
2.28341e+06
2.27999e+06
2.27674e+06
2.27397e+06
2.27235e+06
2.27175e+06
2.27204e+06
2.27316e+06
2.27499e+06
2.27745e+06
2.2805e+06
2.28403e+06
2.28786e+06
2.29175e+06
2.29548e+06
2.29864e+06
2.29846e+06
)
;

boundaryField
{
    sideLeft
    {
        type            symmetryPlane;
    }
    sideRight
    {
        type            myWaveTransmissive;
        phi             phi.air;
        rho             rho.air;
        psi             thermo:psi.air;
        gamma           1.4;
        fieldInf        100000;
        lInf            10;
        value           uniform 2.29291e+06;
    }
    topbottom
    {
        type            empty;
    }
    frontback
    {
        type            empty;
    }
}


// ************************************************************************* //
