/*--------------------------------*- C++ -*----------------------------------*\
| =========                 |                                                 |
| \\      /  F ield         | OpenFOAM: The Open Source CFD Toolbox           |
|  \\    /   O peration     | Version:  2.4.0                                 |
|   \\  /    A nd           | Web:      www.OpenFOAM.org                      |
|    \\/     M anipulation  |                                                 |
\*---------------------------------------------------------------------------*/
FoamFile
{
    version     2.0;
    format      ascii;
    class       surfaceScalarField;
    location    "0.11";
    object      phi.water;
}
// * * * * * * * * * * * * * * * * * * * * * * * * * * * * * * * * * * * * * //

dimensions      [0 3 -1 0 0 0 0];

internalField   nonuniform List<scalar> 
999
(
-6.22121e-13
-1.35513e-12
-5.78995e-13
-3.45404e-13
1.35261e-13
-6.28281e-13
-1.564e-12
-2.10257e-12
-1.92674e-12
-9.32691e-13
-1.67612e-12
-1.93112e-12
-2.27641e-12
-2.84958e-12
-2.24376e-12
-1.76394e-12
-2.63534e-12
-1.27423e-12
-3.1971e-13
-5.40012e-13
-1.16022e-12
-1.06826e-12
-3.81064e-13
-4.89674e-13
-2.27981e-13
-2.73153e-14
-1.0141e-12
-4.39336e-13
-4.68958e-13
1.98951e-13
2.11834e-13
9.17119e-13
7.06226e-13
1.98098e-13
9.17885e-13
-2.13163e-13
-8.56603e-13
-1.01592e-12
-7.55612e-13
2.13163e-13
-1.27898e-13
1.22736e-12
7.26901e-13
1.12809e-12
2.13162e-13
6.18041e-13
1.0851e-12
1.2691e-12
1.69465e-12
2.11497e-12
2.4256e-12
3.41071e-12
3.05352e-12
3.59287e-12
3.96588e-12
4.1894e-12
4.73328e-12
4.53469e-12
3.49436e-12
2.90353e-12
4.24238e-12
3.07895e-12
2.93444e-12
2.90094e-12
2.90992e-12
2.97754e-12
2.07792e-12
3.91302e-12
4.52302e-12
4.45588e-12
3.51088e-12
2.44271e-12
2.02636e-12
1.77559e-12
3.49082e-12
2.95363e-12
1.8035e-12
3.06732e-12
2.38842e-12
1.44205e-12
1.52921e-12
2.41901e-12
1.24732e-12
1.18618e-12
6.6791e-13
1.02224e-12
1.70063e-12
2.31941e-12
1.58076e-12
1.50793e-12
-4.07326e-13
-1.07224e-12
-3.05369e-13
-8.69465e-14
2.13162e-13
6.77591e-13
2.84217e-13
-1.84742e-13
-6.65248e-13
-9.4959e-14
1.19387e-13
1.17012e-12
1.09195e-12
6.37068e-13
3.65377e-13
2.49757e-13
-5.33825e-13
-2.27269e-12
-3.22838e-12
-3.45132e-12
-3.78759e-12
-3.1763e-12
-2.16281e-12
-2.83159e-12
-6.45935e-13
-2.27373e-13
-3.56508e-13
-5.40013e-13
3.13359e-13
-2.41585e-13
-1.1555e-13
-6.51355e-13
-9.89013e-13
-1.5468e-12
-1.84739e-12
-5.85917e-13
-1.05771e-12
-2.33634e-12
-2.83456e-12
-2.14788e-12
-3.02627e-12
-3.05247e-12
-3.10929e-12
-2.58894e-12
-3.08681e-12
-1.53168e-12
-2.02125e-12
-2.76655e-12
-2.41912e-12
-1.52348e-12
-1.08668e-12
-1.55992e-12
-1.76247e-12
-2.25789e-12
-2.77505e-12
-2.38268e-12
-2.03989e-12
-7.60248e-13
1.53968e-13
1.08415e-12
1.89972e-12
1.16273e-12
9.78853e-13
1.83907e-12
1.93862e-12
3.19935e-12
3.35576e-12
3.51355e-12
2.9541e-12
3.46198e-12
3.95725e-12
4.5377e-12
3.82256e-12
4.46459e-12
3.91642e-12
3.19223e-12
2.28936e-12
2.87797e-12
2.31396e-12
3.10476e-12
4.1548e-12
4.89071e-12
4.21289e-12
2.78636e-12
7.53852e-13
-2.13163e-13
-1.10316e-12
-1.07027e-12
-1.07476e-13
-6.95968e-13
-9.73042e-13
-1.56036e-12
-1.5792e-12
-2.28824e-12
-3.26868e-12
-3.25774e-12
-2.41467e-12
-3.56789e-12
-4.58656e-12
-3.56915e-12
-3.07893e-12
-3.4333e-12
-1.65935e-12
-1.13331e-12
-1.4018e-12
-1.54448e-12
-1.50353e-12
-2.47996e-12
-1.72431e-12
-1.41783e-12
-2.6581e-12
-1.41095e-12
-1.72451e-12
-1.12724e-12
-1.78997e-12
-1.19638e-12
-1.80225e-12
-3.04368e-12
-2.22326e-12
-2.9149e-12
-2.64767e-12
-2.17821e-12
-2.21516e-12
-2.84442e-12
-3.23204e-12
-3.91447e-12
-3.92559e-12
-5.11743e-12
-3.54624e-12
-2.16131e-12
-2.85252e-12
-2.01414e-12
-3.36888e-12
-3.18788e-12
-2.63437e-12
-1.75315e-12
-5.23871e-13
-9.81214e-14
3.51208e-13
8.65207e-13
5.9239e-13
2.55796e-13
-3.62268e-13
-8.04026e-13
-1.04162e-12
-1.83645e-12
-2.55588e-12
-1.66131e-12
-9.52766e-13
-2.00403e-12
-2.1114e-12
-2.21879e-12
-2.80813e-12
-2.37847e-12
-1.27816e-12
-2.29871e-12
-1.59871e-12
-1.49875e-12
-1.37308e-12
-1.00251e-12
-1.86588e-13
-1.61401e-12
-2.25838e-12
-6.45956e-13
5.51002e-14
9.08294e-13
6.96865e-13
8.85637e-13
1.35084e-12
2.44215e-12
3.2375e-12
3.06939e-12
2.70797e-12
2.12973e-12
3.17781e-12
1.62047e-12
2.55321e-12
1.27206e-12
1.10578e-12
5.75213e-13
1.19047e-12
1.64487e-12
1.17506e-12
1.08412e-12
6.68608e-13
-1.56319e-13
5.87939e-13
5.40236e-13
1.3592e-12
1.66538e-12
1.49468e-12
1.00473e-12
1.65405e-13
6.94521e-13
3.41757e-13
-1.56319e-13
-2.63197e-14
2.84214e-14
2.27374e-13
-4.22723e-13
-1.52892e-13
7.32787e-13
1.17263e-13
-1.09918e-12
-9.81373e-13
9.81507e-16
3.67934e-13
-1.81392e-13
-2.99654e-13
-1.75297e-14
-1.00177e-12
3.04064e-14
1.09357e-13
1.7944e-13
2.96714e-13
7.52036e-13
1.27898e-13
1.05065e-12
2.64229e-13
6.62578e-13
1.28769e-12
9.23018e-13
-1.10787e-13
-1.58414e-13
4.26324e-14
-5.23566e-13
-5.32988e-13
-9.07462e-13
-7.31666e-13
2.37978e-13
6.99315e-13
1.9915e-12
8.07824e-13
-1.70531e-13
-6.38922e-13
-4.26318e-14
-5.85521e-13
-4.8216e-13
7.10722e-14
-2.8297e-13
-9.08171e-13
-1.07006e-12
-1.2248e-12
-1.56715e-12
-7.17461e-13
-1.07451e-12
-1.63338e-12
-1.5242e-12
-1.01051e-12
-2.06718e-13
-4.38368e-13
3.31171e-13
4.34899e-19
8.29151e-13
1.64756e-12
1.78456e-12
2.63574e-12
2.76368e-12
2.18481e-12
3.00402e-12
2.2088e-12
3.0734e-12
2.62001e-12
2.70366e-12
2.57113e-12
1.35332e-12
1.74159e-12
5.63534e-13
1.05293e-12
7.4032e-13
9.43326e-13
2.05173e-12
1.37436e-12
2.61429e-12
4.23624e-12
4.39444e-12
4.58412e-12
5.4844e-12
5.5994e-12
5.55279e-12
4.86913e-12
4.56294e-12
4.9205e-12
6.01338e-12
5.92081e-12
5.49925e-12
5.13594e-12
4.38454e-12
3.44507e-12
2.37293e-12
2.25008e-12
2.31002e-12
1.57253e-12
2.62086e-12
3.52383e-12
2.93335e-12
2.99906e-12
2.30487e-12
2.12319e-12
3.05465e-12
3.39962e-12
4.49801e-12
4.27957e-12
4.67545e-12
4.4921e-12
3.3367e-12
3.38195e-12
2.64973e-12
1.59314e-12
1.9062e-12
2.70166e-12
3.3441e-12
4.22232e-12
2.53459e-12
1.96354e-12
2.55113e-12
1.84159e-12
9.14164e-13
7.81559e-13
8.0992e-13
2.00914e-12
1.07699e-12
1.61661e-12
1.75772e-12
1.74588e-13
-6.12298e-14
-1.13687e-13
-1.07359e-14
9.02646e-13
5.33462e-13
5.92516e-14
7.56865e-13
2.25724e-13
-1.61314e-13
-2.0898e-13
8.61634e-13
1.87734e-12
4.77262e-13
-4.26323e-14
1.7053e-13
-6.43738e-14
-4.40536e-13
-1.62539e-12
-1.95989e-12
-8.94755e-13
9.67708e-13
1.27449e-12
1.11393e-12
2.03465e-12
2.58213e-12
1.75739e-12
9.83784e-13
1.8107e-13
-1.21231e-12
-2.07807e-12
-2.10732e-12
-2.00276e-12
-2.60507e-12
-1.52723e-12
-2.05418e-12
-3.08844e-12
-2.61098e-12
-3.13604e-12
-2.83231e-12
-8.52649e-14
1.36929e-13
1.5661e-12
1.68874e-12
4.22961e-13
8.3844e-13
-2.91121e-13
-4.83426e-13
-8.49079e-13
-1.60135e-12
-1.13154e-12
-1.7183e-12
-8.40394e-13
-2.18676e-12
-1.26445e-12
-1.51906e-12
-2.61769e-12
-7.74312e-13
-8.65087e-13
-1.62037e-12
-1.67611e-12
-9.47138e-13
-1.11995e-12
-8.64721e-13
4.01374e-13
-1.4692e-13
-6.96492e-13
-2.44648e-13
1.13889e-12
1.85192e-12
1.12816e-12
9.64825e-13
2.1022e-12
1.81901e-12
2.1187e-12
1.96028e-12
1.61064e-12
1.81937e-12
1.79175e-12
1.61739e-12
1.59018e-12
1.47399e-12
4.19954e-13
3.2685e-13
9.44665e-13
4.9329e-13
-4.00999e-13
-7.80643e-13
-1.67178e-12
-7.30266e-13
-2.11511e-12
-6.80685e-13
-1.84741e-13
1.12691e-13
1.22258e-12
8.43836e-13
2.61317e-12
2.29645e-12
2.14111e-12
1.14983e-12
3.02251e-12
2.14282e-12
1.31554e-12
9.30077e-13
5.71995e-13
1.14847e-12
7.59332e-13
-8.01471e-13
-1.50715e-12
-1.80026e-12
-1.56009e-12
-1.48464e-12
-5.68432e-14
6.6791e-13
1.10206e-12
1.562e-12
1.43425e-12
1.70322e-12
1.70916e-12
2.01791e-12
2.16058e-12
1.38314e-12
3.42953e-13
8.93184e-13
8.85801e-13
5.62201e-13
-1.42108e-13
6.63348e-13
-1.71924e-13
-8.52655e-14
-4.26325e-13
-5.30505e-14
-9.4019e-13
-7.79642e-13
-9.24192e-13
-1.15655e-12
-1.52581e-12
-2.5663e-12
-3.32931e-12
-3.58346e-12
-3.08005e-12
-3.02993e-12
-2.05247e-12
-2.4217e-12
-2.01322e-12
-2.82448e-12
-2.19518e-12
-2.16805e-12
-3.05884e-12
-2.43048e-12
-2.82943e-12
-3.03421e-12
-3.49648e-12
-4.03297e-12
-3.2426e-12
-2.88888e-12
-2.21707e-12
-2.24456e-12
-3.69701e-12
-1.53625e-12
-1.86895e-13
1.06317e-12
1.88449e-12
2.41536e-12
5.32173e-12
9.51349e-12
1.6145e-11
2.58485e-11
4.15163e-11
6.33769e-11
9.86685e-11
1.57709e-10
2.50702e-10
4.03842e-10
6.46161e-10
1.03147e-09
1.6393e-09
2.60077e-09
4.1115e-09
6.47245e-09
1.01498e-08
1.58566e-08
2.46759e-08
3.82454e-08
5.90436e-08
9.07852e-08
1.39029e-07
2.12042e-07
3.22077e-07
4.87204e-07
7.33938e-07
1.10102e-06
1.64477e-06
2.44667e-06
3.62406e-06
5.34507e-06
7.84937e-06
1.1477e-05
1.67078e-05
2.42157e-05
3.49419e-05
5.01944e-05
7.1781e-05
0.000102187
0.000144811
0.000204274
0.000286823
0.00040086
0.000557614
0.000772013
0.00106378
0.0014588
0.00199089
0.00270391
0.00365438
0.0049147
0.00657703
0.00875784
0.0116034
0.015296
0.0200614
0.0261772
0.0339822
0.0438865
0.0563832
0.0720602
0.0916131
0.115858
0.145744
0.182365
0.226973
0.280985
0.34599
0.423753
0.516217
0.625494
0.75386
0.903737
1.07767
1.27832
1.50839
1.77065
2.06783
2.40264
2.77767
3.19539
3.65808
4.1678
4.72636
5.33524
5.99564
6.70841
7.47405
8.29269
9.16413
10.0878
11.0629
12.0881
13.1621
14.2831
15.4491
16.6582
17.908
19.1963
20.5204
21.8781
23.2668
24.6841
26.1274
27.5945
29.0832
30.5911
32.1163
33.6567
35.2107
36.7764
38.3525
39.9373
41.5297
43.1285
44.7326
46.3412
47.9534
49.5685
51.186
52.8052
54.4258
56.0473
57.6695
59.2921
60.9149
62.5378
64.1605
65.7831
67.4054
69.0275
70.6493
72.2707
73.8919
75.5128
77.1335
78.754
80.3744
81.9946
83.6149
85.2351
86.8555
88.476
90.0967
91.7177
93.3391
94.9608
96.5831
98.2059
99.8293
101.453
103.078
104.704
106.33
107.958
109.586
111.216
112.846
114.478
116.111
117.745
119.38
121.017
122.655
124.295
125.936
127.578
129.223
130.868
132.516
134.164
135.815
137.467
139.121
140.777
142.435
144.094
145.755
147.418
149.083
150.75
152.418
154.089
155.761
157.436
159.112
160.791
162.471
164.153
165.838
167.525
169.213
170.904
172.598
174.293
175.991
177.691
179.393
181.098
182.805
184.515
186.228
187.943
189.66
191.381
193.104
194.83
196.559
198.291
200.026
201.764
203.505
205.249
206.997
208.747
210.502
212.259
214.02
215.785
217.553
219.325
221.1
222.879
224.662
226.449
228.24
230.035
231.834
233.637
235.444
237.255
239.071
240.891
242.715
244.544
246.378
248.216
250.058
251.906
253.758
255.616
257.478
259.345
261.218
263.096
264.979
266.868
268.762
270.662
272.567
274.478
276.396
278.319
280.249
282.184
284.127
286.075
288.031
289.993
291.961
293.937
295.92
297.911
299.908
301.914
303.926
305.947
307.976
310.012
312.057
314.11
316.173
318.244
320.324
322.413
324.511
326.619
328.737
330.864
333.002
335.149
337.308
339.477
341.658
343.85
346.055
348.271
350.5
352.74
354.994
357.26
359.541
361.834
364.143
366.466
368.804
371.158
373.529
375.916
378.318
380.736
383.173
385.629
388.106
390.601
393.117
395.654
398.211
400.792
403.394
406.021
408.672
411.348
414.049
416.777
419.53
422.309
425.113
427.94
430.786
433.649
436.117
438.566
440.991
443.392
445.777
448.154
450.528
452.908
455.292
457.686
460.084
462.489
464.893
467.3
469.703
472.106
474.505
476.906
479.302
481.7
484.093
486.488
488.877
491.268
493.652
496.036
498.413
500.787
503.155
505.52
507.877
510.23
512.576
514.918
517.251
519.578
521.896
524.208
526.508
528.802
531.083
533.356
535.615
537.862
540.097
542.319
544.529
546.723
548.902
551.064
553.21
555.336
557.444
559.531
561.597
563.64
565.66
567.654
569.626
571.572
573.492
575.38
577.232
579.043
580.819
582.56
584.274
585.956
587.598
589.182
590.695
592.127
593.48
594.764
595.991
597.167
598.287
599.332
600.282
601.112
601.802
602.339
602.705
602.906
602.998
602.972
602.684
602.014
600.988
599.656
598.068
596.243
594.21
591.99
589.634
587.193
584.56
582.671
582.843
)
;

boundaryField
{
    sideLeft
    {
        type            symmetryPlane;
        value           uniform 0;
    }
    sideRight
    {
        type            calculated;
        value           uniform 2644.18;
    }
    topbottom
    {
        type            empty;
        value           nonuniform 0();
    }
    frontback
    {
        type            empty;
        value           nonuniform 0();
    }
}


// ************************************************************************* //
