/*--------------------------------*- C++ -*----------------------------------*\
| =========                 |                                                 |
| \\      /  F ield         | OpenFOAM: The Open Source CFD Toolbox           |
|  \\    /   O peration     | Version:  2.4.0                                 |
|   \\  /    A nd           | Web:      www.OpenFOAM.org                      |
|    \\/     M anipulation  |                                                 |
\*---------------------------------------------------------------------------*/
FoamFile
{
    version     2.0;
    format      ascii;
    class       surfaceScalarField;
    location    "0.11";
    object      phi.air;
}
// * * * * * * * * * * * * * * * * * * * * * * * * * * * * * * * * * * * * * //

dimensions      [0 3 -1 0 0 0 0];

internalField   nonuniform List<scalar> 
999
(
-7.35808e-13
-1.12776e-12
-4.65309e-13
-4.02247e-13
2.48948e-13
-5.14594e-13
-1.67769e-12
-2.04573e-12
-2.09727e-12
-1.10322e-12
-1.22138e-12
-2.27218e-12
-2.21957e-12
-2.67905e-12
-2.01638e-12
-2.27553e-12
-2.12375e-12
-1.38792e-12
-4.9024e-13
-1.98952e-13
-1.16022e-12
-1.23879e-12
-3.81064e-13
-8.30735e-13
1.1308e-13
-1.41002e-13
-8.43566e-13
-4.39336e-13
9.9476e-14
-6.537e-13
3.82364e-13
7.46589e-13
8.19912e-13
4.25472e-13
6.33668e-13
-1.5632e-13
-9.13447e-13
-1.07276e-12
-6.98769e-13
2.70006e-13
4.26323e-14
1.11367e-12
6.70058e-13
1.07125e-12
-1.42115e-14
9.02258e-13
1.19878e-12
1.21225e-12
1.52412e-12
1.77391e-12
2.93719e-12
3.75177e-12
2.48509e-12
3.47919e-12
3.96588e-12
4.1894e-12
5.0175e-12
4.25047e-12
3.66489e-12
2.50562e-12
4.52659e-12
3.30632e-12
2.8776e-12
2.95778e-12
2.68255e-12
3.14807e-12
2.13477e-12
3.96986e-12
4.40933e-12
4.2285e-12
3.51088e-12
3.01114e-12
1.45792e-12
1.94612e-12
3.43398e-12
2.55573e-12
2.2014e-12
2.55573e-12
2.72949e-12
1.49889e-12
1.75659e-12
2.41901e-12
1.4747e-12
1.01565e-12
4.9738e-13
9.65392e-13
1.98485e-12
2.09204e-12
1.97866e-12
1.11003e-12
-6.34699e-13
-8.44868e-13
3.56911e-14
2.67403e-14
-1.84742e-13
6.20748e-13
3.41061e-13
4.2632e-14
-9.49465e-13
-3.22333e-13
4.03605e-13
1.05644e-12
1.31933e-12
5.80224e-13
3.65377e-13
3.63444e-13
-5.33825e-13
-1.87479e-12
-3.85366e-12
-3.39447e-12
-3.61706e-12
-3.23315e-12
-2.16281e-12
-2.83159e-12
-5.32248e-13
-1.13687e-13
-6.97568e-13
-8.52658e-14
2.91417e-14
-4.68958e-13
-1.1555e-13
-1.96608e-13
-1.33007e-12
-1.31943e-12
-2.2453e-12
-4.15387e-13
-1.11455e-12
-2.10897e-12
-2.77771e-12
-2.20472e-12
-2.96943e-12
-3.16616e-12
-3.05245e-12
-2.58894e-12
-3.31418e-12
-1.53168e-12
-2.476e-12
-2.48233e-12
-2.6465e-12
-1.2961e-12
-1.02983e-12
-1.16201e-12
-1.98985e-12
-2.37158e-12
-2.49083e-12
-2.49637e-12
-2.26727e-12
-8.17092e-13
3.81342e-13
1.0273e-12
1.78603e-12
8.78515e-13
1.14938e-12
2.06645e-12
1.59756e-12
3.59726e-12
3.18523e-12
3.74092e-12
2.55619e-12
3.51882e-12
4.12778e-12
4.31033e-12
4.44784e-12
4.06668e-12
3.51852e-12
3.30592e-12
2.28936e-12
3.0485e-12
2.20027e-12
2.99107e-12
4.09795e-12
5.06124e-12
4.38343e-12
2.33161e-12
8.67539e-13
-9.94761e-14
-1.38738e-12
-1.07027e-12
2.90428e-13
-4.11751e-13
-1.3141e-12
-1.38983e-12
-1.5792e-12
-2.57245e-12
-3.49605e-12
-3.31458e-12
-2.07361e-12
-3.28367e-12
-4.41603e-12
-3.91021e-12
-3.07893e-12
-3.20593e-12
-1.88672e-12
-1.13331e-12
-1.68602e-12
-1.60133e-12
-1.27616e-12
-2.5368e-12
-2.00853e-12
-1.13361e-12
-2.94232e-12
-1.01304e-12
-1.66767e-12
-1.35461e-12
-1.67628e-12
-1.8785e-12
-1.40434e-12
-2.58893e-12
-2.22326e-12
-2.68752e-12
-2.93188e-12
-2.17821e-12
-2.32884e-12
-3.0718e-12
-3.00467e-12
-3.91447e-12
-4.15297e-12
-4.71952e-12
-4.22836e-12
-2.16131e-12
-2.62515e-12
-2.29836e-12
-3.25519e-12
-2.84682e-12
-2.91859e-12
-1.41209e-12
-8.08089e-13
-2.68652e-13
4.64894e-13
1.09258e-12
4.78703e-13
2.84223e-14
3.56359e-14
-8.04026e-13
-1.49637e-12
-1.66592e-12
-2.15798e-12
-2.00237e-12
-1.18014e-12
-1.71981e-12
-2.05455e-12
-2.21879e-12
-2.6376e-12
-2.37847e-12
-1.22132e-12
-2.4124e-12
-1.71239e-12
-1.15769e-12
-1.37308e-12
-1.28673e-12
-4.70805e-13
-1.10242e-12
-2.14469e-12
-8.16486e-13
3.39317e-13
5.67233e-13
4.12648e-13
1.11301e-12
1.294e-12
2.44215e-12
3.18066e-12
3.23992e-12
2.53744e-12
2.35711e-12
2.89359e-12
2.01838e-12
2.89427e-12
8.17314e-13
7.64724e-13
1.0868e-12
1.01994e-12
2.2133e-12
4.92938e-13
1.1978e-12
6.68608e-13
2.41585e-13
1.90036e-13
5.40236e-13
1.24551e-12
1.49485e-12
1.83574e-12
7.7736e-13
3.35935e-13
6.94521e-13
-2.26677e-13
1.27898e-13
3.14741e-13
2.84214e-14
1.13687e-13
-2.52192e-13
-3.23423e-13
6.75943e-13
2.3095e-13
-1.04233e-12
-1.37928e-12
2.28355e-13
3.11091e-13
-1.08615e-14
1.55093e-13
-1.1544e-12
-9.22752e-14
-1.96967e-13
5.0726e-13
8.90985e-15
1.24966e-14
5.81506e-13
4.68958e-13
1.16434e-12
-2.47362e-13
1.06048e-12
6.05564e-13
1.37777e-12
-1.10787e-13
1.21167e-14
4.26324e-14
-6.37253e-13
-2.48771e-13
-7.93775e-13
-1.12957e-12
1.81135e-13
8.13002e-13
1.9915e-12
9.78354e-13
-2.27374e-13
-9.79983e-13
3.55272e-13
-8.12895e-13
-5.39003e-13
1.27916e-13
-1.1244e-13
-9.65014e-13
-1.18374e-12
-1.33849e-12
-1.28293e-12
-8.31148e-13
-1.13135e-12
-1.34916e-12
-1.75157e-12
-1.12419e-12
-9.3031e-14
-2.67837e-13
3.31171e-13
5.68439e-14
7.72307e-13
1.64756e-12
1.50034e-12
2.69258e-12
2.64999e-12
2.58272e-12
2.83348e-12
2.15195e-12
3.24393e-12
2.56316e-12
2.93104e-12
2.62797e-12
1.23963e-12
1.6279e-12
7.90908e-13
7.68712e-13
1.02454e-12
8.86483e-13
2.44964e-12
9.19613e-13
2.78482e-12
4.06571e-12
4.45129e-12
4.35675e-12
5.59809e-12
5.76993e-12
5.09804e-12
5.0965e-12
4.73347e-12
5.20472e-12
5.55863e-12
6.14818e-12
5.44241e-12
5.24963e-12
4.04348e-12
3.67244e-12
2.25924e-12
2.30692e-12
2.48055e-12
1.74306e-12
2.50718e-12
3.41014e-12
2.81967e-12
2.658e-12
2.64593e-12
1.95266e-12
3.1115e-12
3.627e-12
4.27064e-12
4.4501e-12
4.73229e-12
4.32157e-12
3.50723e-12
3.15458e-12
2.64973e-12
1.42261e-12
2.3041e-12
2.47429e-12
3.79885e-12
3.88126e-12
2.47775e-12
2.19092e-12
2.32375e-12
1.89844e-12
1.08469e-12
6.67872e-13
1.09414e-12
1.27018e-12
1.41805e-12
1.78714e-12
1.4735e-12
1.74588e-13
-4.38633e-15
-2.84218e-13
2.73481e-13
7.8896e-13
5.90305e-13
6.84529e-13
1.79002e-14
7.37314e-13
-5.02374e-13
-2.0898e-13
1.08901e-12
1.59313e-12
4.77262e-13
1.42112e-14
4.54748e-13
-4.05434e-13
-4.97379e-13
-1.5117e-12
-1.84621e-12
-1.17897e-12
9.10865e-13
1.84292e-12
9.43402e-13
1.97781e-12
2.4116e-12
1.47317e-12
7.5641e-13
1.8107e-13
-9.28093e-13
-1.79385e-12
-2.39154e-12
-2.17329e-12
-2.03664e-12
-1.86829e-12
-1.94049e-12
-2.91791e-12
-2.72467e-12
-3.0792e-12
-2.4344e-12
-6.53699e-13
4.77989e-13
1.22504e-12
1.91612e-12
5.93492e-13
2.13163e-13
-6.37471e-14
-3.12896e-13
-9.05922e-13
-1.60135e-12
-1.01786e-12
-1.60461e-12
-1.12461e-12
-1.95939e-12
-1.43498e-12
-1.86012e-12
-2.21978e-12
-8.31156e-13
-8.08244e-13
-1.62037e-12
-1.50558e-12
-1.40189e-12
-9.49417e-13
-6.9419e-13
-4.51277e-13
2.36104e-14
-1.28058e-13
-3.01491e-13
1.13889e-12
2.02245e-12
1.01447e-12
1.24904e-12
1.98852e-12
1.70532e-12
2.28923e-12
1.8466e-12
1.72433e-12
1.64884e-12
2.01913e-12
1.56054e-12
1.64703e-12
1.3603e-12
3.06268e-13
4.40537e-13
1.22888e-12
3.2276e-13
-4.00999e-13
-1.17855e-12
-1.84231e-12
-6.16579e-13
-1.71721e-12
-9.08059e-13
-1.84741e-13
-9.96106e-16
1.10889e-12
1.01437e-12
2.27211e-12
2.41013e-12
2.19795e-12
1.37721e-12
2.85198e-12
2.42704e-12
1.08817e-12
6.4586e-13
9.69899e-13
9.77942e-13
9.29862e-13
-6.30941e-13
-1.79137e-12
-2.25501e-12
-1.38956e-12
-1.14358e-12
-1.13687e-13
7.81597e-13
1.04521e-12
1.33463e-12
1.4911e-12
1.47585e-12
1.766e-12
2.24528e-12
1.87636e-12
1.66736e-12
4.5664e-13
7.22654e-13
1.2837e-12
6.19045e-13
-2.55795e-13
4.92818e-13
-3.99298e-13
-3.12639e-13
-8.52647e-14
-1.09894e-13
-7.69659e-13
-9.50173e-13
-6.96819e-13
-1.49762e-12
-7.86849e-13
-2.85052e-12
-3.55669e-12
-3.46977e-12
-3.59164e-12
-2.51834e-12
-2.10932e-12
-2.25117e-12
-2.29743e-12
-2.7108e-12
-2.59308e-12
-1.94067e-12
-2.88831e-12
-2.48733e-12
-2.77259e-12
-3.37527e-12
-3.32595e-12
-3.86244e-12
-3.29944e-12
-2.66151e-12
-2.55813e-12
-2.64247e-12
-3.41279e-12
-1.5931e-12
-4.71112e-13
1.57476e-12
1.60028e-12
2.69957e-12
5.20805e-12
9.68402e-12
1.67703e-11
2.56211e-11
4.11753e-11
6.38317e-11
9.94644e-11
1.57879e-10
2.5201e-10
4.04865e-10
6.48719e-10
1.03522e-09
1.64607e-09
2.61021e-09
4.12565e-09
6.49518e-09
1.01852e-08
1.5911e-08
2.47589e-08
3.83709e-08
5.92333e-08
9.10723e-08
1.39459e-07
2.12685e-07
3.23033e-07
4.8862e-07
7.36027e-07
1.10408e-06
1.64924e-06
2.45318e-06
3.63349e-06
5.35865e-06
7.86884e-06
1.15048e-05
1.67473e-05
2.42714e-05
3.50203e-05
5.03041e-05
7.19338e-05
0.000102399
0.000145103
0.000204674
0.000287368
0.0004016
0.000558613
0.000773354
0.00106557
0.00146118
0.00199403
0.00270802
0.00365975
0.00492167
0.00658603
0.00876937
0.0116181
0.0153146
0.0200848
0.0262066
0.0340186
0.0439315
0.0564384
0.0721276
0.0916947
0.115956
0.145861
0.182504
0.227137
0.281176
0.346211
0.424008
0.516508
0.625825
0.754232
0.904152
1.07813
1.27883
1.50895
1.77125
2.06847
2.40332
2.77839
3.19614
3.65886
4.16861
4.72717
5.33607
5.99647
6.70924
7.47486
8.29349
9.1649
10.0886
11.0636
12.0888
13.1627
14.2836
15.4496
16.6587
17.9084
19.1966
20.5207
21.8784
23.267
24.6842
26.1275
27.5946
29.0832
30.5911
32.1162
33.6566
35.2106
36.7763
38.3523
39.9371
41.5295
43.1283
44.7324
46.341
47.9532
49.5683
51.1857
52.8049
54.4255
56.0471
57.6693
59.2919
60.9147
62.5375
64.1603
65.7829
67.4052
69.0273
70.649
72.2705
73.8917
75.5126
77.1333
78.7538
80.3741
81.9944
83.6146
85.2349
86.8553
88.4758
90.0965
91.7175
93.3389
94.9606
96.5829
98.2057
99.8291
101.453
103.078
104.704
106.33
107.958
109.586
111.215
112.846
114.478
116.111
117.745
119.38
121.017
122.655
124.295
125.936
127.578
129.222
130.868
132.515
134.164
135.815
137.467
139.121
140.777
142.435
144.094
145.755
147.418
149.083
150.75
152.418
154.089
155.761
157.436
159.112
160.79
162.471
164.153
165.838
167.525
169.213
170.904
172.597
174.293
175.991
177.691
179.393
181.098
182.805
184.515
186.228
187.943
189.66
191.381
193.104
194.83
196.559
198.291
200.026
201.764
203.505
205.249
206.997
208.747
210.501
212.259
214.02
215.785
217.553
219.325
221.1
222.879
224.662
226.449
228.24
230.035
231.834
233.637
235.444
237.255
239.071
240.891
242.715
244.544
246.378
248.216
250.058
251.906
253.758
255.616
257.478
259.345
261.218
263.096
264.979
266.867
268.762
270.661
272.567
274.478
276.396
278.319
280.249
282.184
284.127
286.075
288.03
289.993
291.961
293.937
295.92
297.911
299.908
301.913
303.926
305.947
307.976
310.012
312.057
314.11
316.173
318.244
320.324
322.413
324.511
326.619
328.736
330.864
333.001
335.149
337.308
339.477
341.658
343.85
346.055
348.271
350.5
352.74
354.994
357.26
359.541
361.834
364.143
366.466
368.804
371.158
373.529
375.916
378.318
380.736
383.173
385.629
388.106
390.601
393.117
395.654
398.211
400.792
403.394
406.021
408.672
411.348
414.049
416.777
419.53
422.309
425.113
427.94
430.786
433.649
436.117
438.566
440.991
443.392
445.777
448.154
450.528
452.908
455.292
457.686
460.084
462.489
464.893
467.3
469.703
472.106
474.505
476.906
479.302
481.7
484.094
486.488
488.878
491.267
493.652
496.035
498.413
500.787
503.155
505.519
507.877
510.23
512.576
514.918
517.251
519.578
521.897
524.208
526.509
528.801
531.083
533.355
535.615
537.862
540.097
542.319
544.529
546.723
548.902
551.064
553.21
555.336
557.444
559.531
561.597
563.64
565.66
567.654
569.626
571.572
573.492
575.38
577.232
579.044
580.819
582.56
584.274
585.956
587.598
589.182
590.695
592.127
593.48
594.764
595.992
597.167
598.287
599.332
600.282
601.112
601.802
602.339
602.705
602.905
602.999
602.976
602.69
602.022
600.985
599.657
598.068
596.243
594.21
591.99
589.634
587.193
584.558
582.67
582.846
)
;

boundaryField
{
    sideLeft
    {
        type            symmetryPlane;
        value           uniform 0;
    }
    sideRight
    {
        type            calculated;
        value           uniform 585.351;
    }
    topbottom
    {
        type            empty;
        value           nonuniform 0();
    }
    frontback
    {
        type            empty;
        value           nonuniform 0();
    }
}


// ************************************************************************* //
