/*--------------------------------*- C++ -*----------------------------------*\
| =========                 |                                                 |
| \\      /  F ield         | OpenFOAM: The Open Source CFD Toolbox           |
|  \\    /   O peration     | Version:  2.4.0                                 |
|   \\  /    A nd           | Web:      www.OpenFOAM.org                      |
|    \\/     M anipulation  |                                                 |
\*---------------------------------------------------------------------------*/
FoamFile
{
    version     2.0;
    format      ascii;
    class       volScalarField;
    location    "0.11";
    object      pMean;
}
// * * * * * * * * * * * * * * * * * * * * * * * * * * * * * * * * * * * * * //

dimensions      [1 -1 -2 0 0 0 0];

internalField   nonuniform List<scalar> 
1000
(
5e+06
5e+06
5e+06
5e+06
5e+06
5e+06
5e+06
5e+06
5e+06
5e+06
5e+06
5e+06
5e+06
5e+06
5e+06
5e+06
5e+06
5e+06
5e+06
5e+06
5e+06
5e+06
5e+06
5e+06
5e+06
5e+06
5e+06
5e+06
5e+06
5e+06
5e+06
5e+06
5e+06
5e+06
5e+06
5e+06
5e+06
5e+06
5e+06
5e+06
5e+06
5e+06
5e+06
5e+06
5e+06
5e+06
5e+06
5e+06
5e+06
5e+06
5e+06
5e+06
5e+06
5e+06
5e+06
5e+06
5e+06
5e+06
5e+06
5e+06
5e+06
5e+06
5e+06
5e+06
5e+06
5e+06
5e+06
5e+06
5e+06
5e+06
5e+06
5e+06
5e+06
5e+06
5e+06
5e+06
5e+06
5e+06
5e+06
5e+06
5e+06
5e+06
5e+06
5e+06
5e+06
5e+06
5e+06
5e+06
5e+06
5e+06
5e+06
5e+06
5e+06
5e+06
5e+06
5e+06
5e+06
5e+06
5e+06
5e+06
5e+06
5e+06
5e+06
5e+06
5e+06
5e+06
5e+06
5e+06
5e+06
5e+06
5e+06
5e+06
5e+06
5e+06
5e+06
5e+06
5e+06
5e+06
5e+06
5e+06
5e+06
5e+06
5e+06
5e+06
5e+06
5e+06
5e+06
5e+06
5e+06
5e+06
5e+06
5e+06
5e+06
5e+06
5e+06
5e+06
5e+06
5e+06
5e+06
5e+06
5e+06
5e+06
5e+06
5e+06
5e+06
5e+06
5e+06
5e+06
5e+06
5e+06
5e+06
5e+06
5e+06
5e+06
5e+06
5e+06
5e+06
5e+06
5e+06
5e+06
5e+06
5e+06
5e+06
5e+06
5e+06
5e+06
5e+06
5e+06
5e+06
5e+06
5e+06
5e+06
5e+06
5e+06
5e+06
5e+06
5e+06
5e+06
5e+06
5e+06
5e+06
5e+06
5e+06
5e+06
5e+06
5e+06
5e+06
5e+06
5e+06
5e+06
5e+06
5e+06
5e+06
5e+06
5e+06
5e+06
5e+06
5e+06
5e+06
5e+06
5e+06
5e+06
5e+06
5e+06
5e+06
5e+06
5e+06
5e+06
5e+06
5e+06
5e+06
5e+06
5e+06
5e+06
5e+06
5e+06
5e+06
5e+06
5e+06
5e+06
5e+06
5e+06
5e+06
5e+06
5e+06
5e+06
5e+06
5e+06
5e+06
5e+06
5e+06
5e+06
5e+06
5e+06
5e+06
5e+06
5e+06
5e+06
5e+06
5e+06
5e+06
5e+06
5e+06
5e+06
5e+06
5e+06
5e+06
5e+06
5e+06
5e+06
5e+06
5e+06
5e+06
5e+06
5e+06
5e+06
5e+06
5e+06
5e+06
5e+06
5e+06
5e+06
5e+06
5e+06
5e+06
5e+06
5e+06
5e+06
5e+06
5e+06
5e+06
5e+06
5e+06
5e+06
5e+06
5e+06
5e+06
5e+06
5e+06
5e+06
5e+06
5e+06
5e+06
5e+06
5e+06
5e+06
5e+06
5e+06
5e+06
5e+06
5e+06
5e+06
5e+06
5e+06
5e+06
5e+06
5e+06
5e+06
5e+06
5e+06
5e+06
5e+06
5e+06
5e+06
5e+06
5e+06
5e+06
5e+06
5e+06
5e+06
5e+06
5e+06
5e+06
5e+06
5e+06
5e+06
5e+06
5e+06
5e+06
5e+06
5e+06
5e+06
5e+06
5e+06
5e+06
5e+06
5e+06
5e+06
5e+06
5e+06
5e+06
5e+06
5e+06
5e+06
5e+06
5e+06
5e+06
5e+06
5e+06
5e+06
5e+06
5e+06
5e+06
5e+06
5e+06
5e+06
5e+06
5e+06
5e+06
5e+06
5e+06
5e+06
5e+06
5e+06
5e+06
5e+06
5e+06
5e+06
5e+06
5e+06
5e+06
5e+06
5e+06
5e+06
5e+06
5e+06
5e+06
5e+06
5e+06
5e+06
5e+06
5e+06
5e+06
5e+06
5e+06
5e+06
5e+06
5e+06
5e+06
5e+06
5e+06
5e+06
5e+06
5e+06
5e+06
5e+06
5e+06
5e+06
5e+06
5e+06
5e+06
5e+06
5e+06
5e+06
5e+06
5e+06
5e+06
5e+06
5e+06
5e+06
5e+06
5e+06
5e+06
5e+06
5e+06
5e+06
5e+06
5e+06
5e+06
5e+06
5e+06
5e+06
5e+06
5e+06
5e+06
5e+06
5e+06
5e+06
5e+06
5e+06
5e+06
5e+06
5e+06
5e+06
5e+06
5e+06
5e+06
5e+06
5e+06
5e+06
5e+06
5e+06
5e+06
5e+06
5e+06
5e+06
5e+06
5e+06
5e+06
5e+06
5e+06
5e+06
5e+06
5e+06
5e+06
5e+06
5e+06
5e+06
5e+06
5e+06
5e+06
5e+06
5e+06
5e+06
5e+06
5e+06
5e+06
5e+06
5e+06
5e+06
5e+06
5e+06
5e+06
5e+06
5e+06
5e+06
5e+06
5e+06
5e+06
5e+06
5e+06
5e+06
5e+06
5e+06
5e+06
5e+06
5e+06
5e+06
5e+06
5e+06
5e+06
5e+06
5e+06
5e+06
5e+06
5e+06
5e+06
5e+06
5e+06
5e+06
5e+06
5e+06
5e+06
5e+06
5e+06
5e+06
5e+06
5e+06
5e+06
5e+06
5e+06
5e+06
5e+06
5e+06
5e+06
5e+06
5e+06
5e+06
5e+06
5e+06
5e+06
5e+06
5e+06
5e+06
5e+06
5e+06
5e+06
5e+06
5e+06
5e+06
5e+06
5e+06
5e+06
5e+06
5e+06
5e+06
5e+06
5e+06
5e+06
5e+06
5e+06
5e+06
5e+06
5e+06
5e+06
5e+06
5e+06
5e+06
5e+06
5e+06
5e+06
5e+06
5e+06
5e+06
5e+06
5e+06
5e+06
5e+06
5e+06
5e+06
5e+06
5e+06
5e+06
5e+06
5e+06
5e+06
5e+06
5e+06
5e+06
5e+06
5e+06
5e+06
5e+06
5e+06
5e+06
5e+06
5e+06
5e+06
5e+06
5e+06
5e+06
5e+06
5e+06
5e+06
5e+06
5e+06
5e+06
5e+06
5e+06
5e+06
5e+06
5e+06
5e+06
5e+06
5e+06
5e+06
5e+06
5e+06
5e+06
5e+06
5e+06
5e+06
5e+06
5e+06
5e+06
5e+06
5e+06
5e+06
5e+06
5e+06
5e+06
5e+06
5e+06
5e+06
5e+06
5e+06
5e+06
5e+06
5e+06
5e+06
5e+06
5e+06
5e+06
5e+06
5e+06
5e+06
5e+06
5e+06
5e+06
5e+06
5e+06
5e+06
5e+06
5e+06
5e+06
5e+06
5e+06
5e+06
5e+06
5e+06
5e+06
5e+06
5e+06
5e+06
5e+06
5e+06
5e+06
5e+06
5e+06
5e+06
4.99999e+06
4.99999e+06
4.99999e+06
4.99999e+06
4.99999e+06
4.99998e+06
4.99998e+06
4.99997e+06
4.99996e+06
4.99996e+06
4.99995e+06
4.99993e+06
4.99992e+06
4.9999e+06
4.99988e+06
4.99985e+06
4.99982e+06
4.99979e+06
4.99975e+06
4.9997e+06
4.99965e+06
4.99959e+06
4.99952e+06
4.99944e+06
4.99935e+06
4.99925e+06
4.99914e+06
4.99901e+06
4.99887e+06
4.99872e+06
4.99855e+06
4.99837e+06
4.99816e+06
4.99794e+06
4.9977e+06
4.99744e+06
4.99717e+06
4.99687e+06
4.99654e+06
4.9962e+06
4.99583e+06
4.99545e+06
4.99503e+06
4.99459e+06
4.99413e+06
4.99365e+06
4.99313e+06
4.9926e+06
4.99203e+06
4.99144e+06
4.99083e+06
4.99018e+06
4.98951e+06
4.98882e+06
4.9881e+06
4.98735e+06
4.98657e+06
4.98577e+06
4.98494e+06
4.98408e+06
4.98319e+06
4.98228e+06
4.98134e+06
4.98038e+06
4.97938e+06
4.97836e+06
4.97731e+06
4.97624e+06
4.97514e+06
4.97401e+06
4.97285e+06
4.97167e+06
4.97045e+06
4.96922e+06
4.96795e+06
4.96666e+06
4.96534e+06
4.96399e+06
4.96261e+06
4.96121e+06
4.95978e+06
4.95832e+06
4.95684e+06
4.95533e+06
4.95379e+06
4.95222e+06
4.95063e+06
4.94901e+06
4.94736e+06
4.94569e+06
4.94398e+06
4.94225e+06
4.9405e+06
4.93871e+06
4.9369e+06
4.93506e+06
4.93319e+06
4.93129e+06
4.92937e+06
4.92742e+06
4.92544e+06
4.92344e+06
4.9214e+06
4.91934e+06
4.91725e+06
4.91514e+06
4.91299e+06
4.91082e+06
4.90862e+06
4.90639e+06
4.90414e+06
4.90185e+06
4.89954e+06
4.8972e+06
4.89483e+06
4.89244e+06
4.89001e+06
4.88756e+06
4.88508e+06
4.88257e+06
4.88003e+06
4.87746e+06
4.87487e+06
4.87224e+06
4.86959e+06
4.86691e+06
4.8642e+06
4.86146e+06
4.8587e+06
4.8559e+06
4.85308e+06
4.85022e+06
4.84734e+06
4.84443e+06
4.84149e+06
4.83852e+06
4.83552e+06
4.83249e+06
4.82944e+06
4.82635e+06
4.82323e+06
4.82009e+06
4.81691e+06
4.81371e+06
4.81048e+06
4.80721e+06
4.80392e+06
4.8006e+06
4.79724e+06
4.79386e+06
4.79044e+06
4.787e+06
4.78353e+06
4.78002e+06
4.77649e+06
4.77292e+06
4.76933e+06
4.7657e+06
4.76205e+06
4.75836e+06
4.75464e+06
4.75089e+06
4.74711e+06
4.7433e+06
4.73946e+06
4.73558e+06
4.73168e+06
4.72774e+06
4.72377e+06
4.71977e+06
4.71574e+06
4.71167e+06
4.70758e+06
4.70345e+06
4.69929e+06
4.6951e+06
4.69087e+06
4.68661e+06
4.68232e+06
4.678e+06
4.67364e+06
4.66925e+06
4.66483e+06
4.66038e+06
4.65589e+06
4.65136e+06
4.64681e+06
4.64222e+06
4.63759e+06
4.63294e+06
4.62824e+06
4.62352e+06
4.61876e+06
4.61396e+06
4.60913e+06
4.60426e+06
4.59936e+06
4.59443e+06
4.58945e+06
4.58445e+06
4.5794e+06
4.57433e+06
4.56921e+06
4.56406e+06
4.55887e+06
4.55365e+06
4.54838e+06
4.54308e+06
4.53775e+06
4.53237e+06
4.52696e+06
4.52151e+06
4.51603e+06
4.5105e+06
4.50493e+06
4.49933e+06
4.49369e+06
4.48801e+06
4.48228e+06
4.47652e+06
4.47072e+06
4.46488e+06
4.459e+06
4.45307e+06
4.44711e+06
4.4411e+06
4.43505e+06
4.42896e+06
4.42283e+06
4.41665e+06
4.41043e+06
4.40417e+06
4.39787e+06
4.39152e+06
4.38512e+06
4.37868e+06
4.37219e+06
4.36566e+06
4.35908e+06
4.35246e+06
4.34579e+06
4.33907e+06
4.3323e+06
4.32549e+06
4.31862e+06
4.31171e+06
4.30474e+06
4.29773e+06
4.29066e+06
4.28354e+06
4.27637e+06
4.26915e+06
4.26187e+06
4.25454e+06
4.24715e+06
4.23972e+06
4.23223e+06
4.22468e+06
4.2171e+06
4.20947e+06
4.2018e+06
4.19411e+06
4.18642e+06
4.17872e+06
4.17099e+06
4.16323e+06
4.15542e+06
4.14757e+06
4.13966e+06
4.1317e+06
4.12369e+06
4.11564e+06
4.10754e+06
4.09939e+06
4.0912e+06
4.08296e+06
4.07468e+06
4.06636e+06
4.05799e+06
4.04958e+06
4.04112e+06
4.03261e+06
4.02406e+06
4.01547e+06
4.00683e+06
3.99815e+06
3.98942e+06
3.98065e+06
3.97183e+06
3.96297e+06
3.95406e+06
3.94512e+06
3.93612e+06
3.92709e+06
3.91801e+06
3.90888e+06
3.89972e+06
3.89051e+06
3.88126e+06
3.87196e+06
3.86263e+06
3.85325e+06
3.84383e+06
3.83437e+06
3.82486e+06
3.81532e+06
3.80574e+06
3.79611e+06
3.78645e+06
3.77675e+06
3.767e+06
3.75722e+06
3.74741e+06
3.73755e+06
3.72766e+06
3.71773e+06
3.70777e+06
3.69777e+06
3.68774e+06
3.67767e+06
3.66758e+06
3.65745e+06
3.64729e+06
3.6371e+06
3.62689e+06
3.61664e+06
3.60637e+06
3.59608e+06
3.58576e+06
3.57542e+06
3.56506e+06
3.55469e+06
3.54429e+06
3.53389e+06
3.52347e+06
3.51305e+06
3.50262e+06
3.49219e+06
3.48175e+06
3.47132e+06
3.4609e+06
3.45049e+06
3.44009e+06
3.42972e+06
3.41937e+06
3.40906e+06
3.39878e+06
3.38854e+06
3.37836e+06
3.36826e+06
3.35824e+06
3.3483e+06
3.33846e+06
3.32871e+06
3.31905e+06
3.30947e+06
3.29994e+06
3.29043e+06
3.2807e+06
3.27046e+06
)
;

boundaryField
{
    sideLeft
    {
        type            symmetryPlane;
    }
    sideRight
    {
        type            calculated;
        value           uniform 3.2639e+06;
    }
    topbottom
    {
        type            empty;
    }
    frontback
    {
        type            empty;
    }
}


// ************************************************************************* //
