/*--------------------------------*- C++ -*----------------------------------*\
| =========                 |                                                 |
| \\      /  F ield         | OpenFOAM: The Open Source CFD Toolbox           |
|  \\    /   O peration     | Version:  2.4.0                                 |
|   \\  /    A nd           | Web:      www.OpenFOAM.org                      |
|    \\/     M anipulation  |                                                 |
\*---------------------------------------------------------------------------*/
FoamFile
{
    version     2.0;
    format      ascii;
    class       volScalarField;
    location    "0.11";
    object      T.air;
}
// * * * * * * * * * * * * * * * * * * * * * * * * * * * * * * * * * * * * * //

dimensions      [0 0 0 1 0 0 0];

internalField   nonuniform List<scalar> 
1000
(
300
300
300
300
300
300
300
300
300
300
300
300
300
300
300
300
300
300
300
300
300
300
300
300
300
300
300
300
300
300
300
300
300
300
300
300
300
300
300
300
300
300
300
300
300
300
300
300
300
300
300
300
300
300
300
300
300
300
300
300
300
300
300
300
300
300
300
300
300
300
300
300
300
300
300
300
300
300
300
300
300
300
300
300
300
300
300
300
300
300
300
300
300
300
300
300
300
300
300
300
300
300
300
300
300
300
300
300
300
300
300
300
300
300
300
300
300
300
300
300
300
300
300
300
300
300
300
300
300
300
300
300
300
300
300
300
300
300
300
300
300
300
300
300
300
300
300
300
300
300
300
300
300
300
300
300
300
300
300
300
300
300
300
300
300
300
300
300
300
300
300
300
300
300
300
300
300
300
300
300
300
300
300
300
300
300
300
300
300
300
300
300
300
300
300
300
300
300
300
300
300
300
300
300
300
300
300
300
300
300
300
300
300
300
300
300
300
300
300
300
300
300
300
300
300
300
300
300
300
300
300
300
300
300
300
300
300
300
300
300
300
300
300
300
300
300
300
300
300
300
300
300
300
300
300
300
300
300
300
300
300
300
300
300
300
300
300
300
300
300
300
300
300
300
300
300
300
300
300
300
300
300
300
300
300
300
300
300
300
300
300
300
300
300
300
300
300
300
300
300
300
300
300
300
300
300
300
300
300
300
300
300
300
300
300
300
300
300
300
300
300
300
300
300
300
300
300
300
300
300
300
300
300
300
300
300
300
300
300
300
300
300
300
300
300
300
300
300
300
300
300
300
300
300
300
300
300
300
300
300
300
300
300
300
300
300
300
300
300
300
300
300
300
300
300
300
300
300
300
300
300
300
300
300
300
300
300
300
300
300
300
300
300
300
300
300
300
300
300
300
300
300
300
300
300
300
300
300
300
300
300
300
300
300
300
300
300
300
300
300
300
300
300
300
300
300
300
300
300
300
300
300
300
300
300
300
300
300
300
300
300
300
300
300
300
300
300
300
300
300
300
300
300
300
300
300
300
300
300
300
300
300
300
300
300
300
300
300
300
300
300
300
300
300
300
300
300
300
300
300
300
300
300
300
300
300
300
300
300
300
300
300
300
300
300
300
300
300
300
300
300
300
300
300
300
300
300
300
300
300
300
300
300
300
300
300
300
300
300
300
300
300
300
300
300
300
300
300
300
300
300
300
300
300
300
300
300
300
300
300
300
300
300
300
300
300
300
300
300
300
300
300
300
300
300
300
300
300
300
300
300
300
300
300
300
300
300
300
300
300
300
300
300
300
300
300
300
300
300
300
300
300
300
300
300
300
300
300
300
300
300
300
300
300
300
300
300
300
300
300
300
300
300
300
300
300
300
300
300
300
300
300
300
300
300
300
300
300
300
300
300
300
300
300
300
300
300
300
300
300
300
300
300
300
299.999
299.999
299.999
299.999
299.998
299.998
299.997
299.996
299.996
299.994
299.993
299.991
299.989
299.987
299.984
299.98
299.976
299.972
299.966
299.96
299.952
299.944
299.934
299.923
299.911
299.898
299.882
299.866
299.847
299.827
299.805
299.781
299.756
299.728
299.699
299.668
299.634
299.599
299.563
299.524
299.484
299.442
299.398
299.353
299.307
299.259
299.21
299.159
299.108
299.055
299.002
298.947
298.892
298.836
298.779
298.722
298.664
298.605
298.546
298.487
298.427
298.367
298.306
298.246
298.185
298.123
298.062
298
297.938
297.876
297.814
297.751
297.689
297.626
297.563
297.5
297.436
297.373
297.31
297.246
297.182
297.118
297.054
296.99
296.925
296.861
296.796
296.731
296.666
296.601
296.536
296.471
296.405
296.339
296.273
296.207
296.141
296.075
296.008
295.941
295.875
295.808
295.74
295.673
295.605
295.538
295.47
295.402
295.333
295.265
295.196
295.128
295.059
294.99
294.92
294.851
294.781
294.711
294.641
294.571
294.5
294.43
294.359
294.288
294.217
294.146
294.074
294.002
293.93
293.858
293.786
293.713
293.641
293.568
293.495
293.422
293.348
293.275
293.201
293.127
293.052
292.978
292.903
292.829
292.754
292.678
292.603
292.527
292.451
292.375
292.299
292.223
292.146
292.069
291.992
291.915
291.837
291.759
291.681
291.603
291.524
291.445
291.366
291.287
291.208
291.128
291.048
290.968
290.887
290.806
290.725
290.644
290.562
290.481
290.399
290.316
290.234
290.151
290.067
289.984
289.9
289.816
289.732
289.647
289.562
289.477
289.391
289.305
289.219
289.133
289.046
288.959
288.871
288.783
288.695
288.607
288.518
288.429
288.339
288.249
288.159
288.069
287.976
287.887
287.792
287.705
287.604
287.522
287.414
287.339
287.222
287.153
287.029
286.964
286.836
286.772
286.643
286.577
286.447
286.381
286.249
286.182
286.049
285.982
285.847
285.779
285.643
285.574
285.436
285.366
285.227
285.156
285.015
284.944
284.801
284.728
284.583
284.51
284.364
284.288
284.143
284.06
283.921
283.827
283.695
283.593
283.463
283.36
283.223
283.123
282.98
282.881
282.734
282.634
282.483
282.383
282.228
282.126
281.967
281.865
281.702
281.598
281.431
281.326
281.157
281.052
280.882
280.541
280.37
280.028
279.856
279.511
279.336
278.986
278.807
278.448
278.265
277.896
277.709
277.333
277.142
276.758
276.564
276.172
275.974
275.575
275.373
274.967
274.761
274.347
274.137
273.716
273.502
273.073
272.856
272.42
272.199
271.756
271.532
271.082
270.855
270.399
270.168
269.705
269.471
269.002
268.765
268.291
268.051
267.57
267.328
266.842
266.595
266.109
265.852
265.37
265.103
264.622
264.349
263.869
263.589
263.11
262.826
262.346
262.059
261.577
261.289
260.806
260.516
260.034
259.741
259.264
258.965
258.493
258.188
257.724
257.415
256.959
256.653
256.203
255.9
255.455
255.155
254.716
254.42
253.99
253.703
253.287
253.015
252.612
252.36
251.971
251.724
251.376
251.163
250.839
250.664
250.373
250.223
249.96
249.833
249.593
249.477
249.183
249.293
249.485
)
;

boundaryField
{
    sideLeft
    {
        type            symmetryPlane;
    }
    sideRight
    {
        type            zeroGradient;
    }
    topbottom
    {
        type            empty;
    }
    frontback
    {
        type            empty;
    }
}


// ************************************************************************* //
