/*--------------------------------*- C++ -*----------------------------------*\
| =========                 |                                                 |
| \\      /  F ield         | OpenFOAM: The Open Source CFD Toolbox           |
|  \\    /   O peration     | Version:  2.4.0                                 |
|   \\  /    A nd           | Web:      www.OpenFOAM.org                      |
|    \\/     M anipulation  |                                                 |
\*---------------------------------------------------------------------------*/
FoamFile
{
    version     2.0;
    format      ascii;
    class       volScalarField;
    location    "0.11";
    object      T.water;
}
// * * * * * * * * * * * * * * * * * * * * * * * * * * * * * * * * * * * * * //

dimensions      [0 0 0 1 0 0 0];

internalField   nonuniform List<scalar> 
1000
(
300
300
300
300
300
300
300
300
300
300
300
300
300
300
300
300
300
300
300
300
300
300
300
300
300
300
300
300
300
300
300
300
300
300
300
300
300
300
300
300
300
300
300
300
300
300
300
300
300
300
300
300
300
300
300
300
300
300
300
300
300
300
300
300
300
300
300
300
300
300
300
300
300
300
300
300
300
300
300
300
300
300
300
300
300
300
300
300
300
300
300
300
300
300
300
300
300
300
300
300
300
300
300
300
300
300
300
300
300
300
300
300
300
300
300
300
300
300
300
300
300
300
300
300
300
300
300
300
300
300
300
300
300
300
300
300
300
300
300
300
300
300
300
300
300
300
300
300
300
300
300
300
300
300
300
300
300
300
300
300
300
300
300
300
300
300
300
300
300
300
300
300
300
300
300
300
300
300
300
300
300
300
300
300
300
300
300
300
300
300
300
300
300
300
300
300
300
300
300
300
300
300
300
300
300
300
300
300
300
300
300
300
300
300
300
300
300
300
300
300
300
300
300
300
300
300
300
300
300
300
300
300
300
300
300
300
300
300
300
300
300
300
300
300
300
300
300
300
300
300
300
300
300
300
300
300
300
300
300
300
300
300
300
300
300
300
300
300
300
300
300
300
300
300
300
300
300
300
300
300
300
300
300
300
300
300
300
300
300
300
300
300
300
300
300
300
300
300
300
300
300
300
300
300
300
300
300
300
300
300
300
300
300
300
300
300
300
300
300
300
300
300
300
300
300
300
300
300
300
300
300
300
300
300
300
300
300
300
300
300
300
300
300
300
300
300
300
300
300
300
300
300
300
300
300
300
300
300
300
300
300
300
300
300
300
300
300
300
300
300
300
300
300
300
300
300
300
300
300
300
300
300
300
300
300
300
300
300
300
300
300
300
300
300
300
300
300
300
300
300
300
300
300
300
300
300
300
300
300
300
300
300
300
300
300
300
300
300
300
300
300
300
300
300
300
300
300
300
300
300
300
300
300
300
300
300
300
300
300
300
300
300
300
300
300
300
300
300
300
300
300
300
300
300
300
300
300
300
300
300
300
300
300
300
300
300
300
300
300
300
300
300
300
300
300
300
300
300
300
300
300
300
300
300
300
300
300
300
300
300
300
300
300
300
300
300
300
300
300
300
300
300
300
300
300
300
300
300
300
300
300
300
300
300
300
300
300
300
300
300
300
300
300
300
300
300
300
300
300
300
300
300
300
300
300
300
300
300
300
300
300
300
300
300
300
300
300
300
300
300
300
300
300
300
300
300
300
300
300
300
300
300
300
300
300
300
300
300
300
300
300
300
300
300
300
300
300
300
300
300
300
300
300
300
300
300
300
300
300
300
300
300
300
300
300
300
300
300
300
300
300
300
300
300
300
300
300
300
300
300
300
300
300
300
300
300
300
300
300
300
300
300
300
300
300
300
300
300
300
300
300
300
300
300
299.999
299.999
299.999
299.999
299.998
299.998
299.997
299.996
299.995
299.994
299.993
299.991
299.989
299.986
299.983
299.979
299.975
299.97
299.964
299.958
299.95
299.941
299.931
299.92
299.907
299.893
299.878
299.86
299.842
299.821
299.798
299.774
299.748
299.72
299.69
299.658
299.625
299.589
299.552
299.513
299.472
299.43
299.386
299.341
299.294
299.246
299.196
299.146
299.094
299.041
298.987
298.933
298.878
298.821
298.765
298.707
298.649
298.591
298.532
298.472
298.413
298.353
298.292
298.231
298.17
298.109
298.048
297.986
297.924
297.862
297.8
297.737
297.675
297.612
297.549
297.486
297.423
297.36
297.296
297.233
297.169
297.105
297.041
296.977
296.913
296.848
296.784
296.719
296.654
296.589
296.524
296.458
296.393
296.327
296.261
296.195
296.129
296.063
295.996
295.93
295.863
295.796
295.729
295.661
295.594
295.526
295.459
295.391
295.322
295.254
295.185
295.117
295.048
294.979
294.909
294.84
294.77
294.701
294.631
294.56
294.49
294.419
294.349
294.278
294.207
294.135
294.064
293.992
293.92
293.848
293.776
293.704
293.631
293.558
293.485
293.412
293.339
293.265
293.191
293.117
293.043
292.969
292.894
292.819
292.744
292.669
292.594
292.518
292.442
292.366
292.29
292.214
292.137
292.06
291.983
291.906
291.828
291.75
291.672
291.594
291.516
291.437
291.358
291.279
291.199
291.12
291.04
290.959
290.879
290.798
290.717
290.636
290.555
290.473
290.391
290.308
290.226
290.143
290.06
289.976
289.893
289.809
289.724
289.64
289.555
289.47
289.384
289.298
289.212
289.126
289.039
288.952
288.864
288.776
288.688
288.6
288.511
288.422
288.332
288.243
288.152
288.062
287.97
287.88
287.785
287.698
287.598
287.516
287.408
287.332
287.216
287.147
287.023
286.958
286.83
286.765
286.636
286.571
286.44
286.375
286.243
286.176
286.043
285.976
285.841
285.773
285.637
285.568
285.43
285.36
285.221
285.151
285.009
284.938
284.795
284.723
284.578
284.505
284.358
284.283
284.137
284.055
283.916
283.822
283.69
283.588
283.458
283.354
283.218
283.118
282.975
282.876
282.729
282.629
282.478
282.378
282.223
282.121
281.963
281.86
281.697
281.593
281.427
281.322
281.152
281.048
280.877
280.536
280.365
280.023
279.851
279.507
279.332
278.981
278.803
278.443
278.26
277.892
277.705
277.329
277.138
276.754
276.559
276.168
275.97
275.571
275.369
274.963
274.756
274.343
274.133
273.711
273.498
273.069
272.852
272.416
272.195
271.752
271.528
271.078
270.851
270.394
270.164
269.701
269.467
268.998
268.761
268.287
268.047
267.566
267.323
266.838
266.591
266.105
265.848
265.366
265.099
264.618
264.345
263.865
263.585
263.106
262.822
262.342
262.055
261.573
261.285
260.802
260.512
260.03
259.737
259.259
258.96
258.489
258.183
257.719
257.411
256.954
256.649
256.198
255.896
255.451
255.15
254.711
254.415
253.985
253.699
253.283
253.01
252.607
252.356
251.967
251.721
251.37
251.159
250.835
250.66
250.368
250.219
249.955
249.829
249.588
249.473
249.179
249.289
249.483
)
;

boundaryField
{
    sideLeft
    {
        type            symmetryPlane;
    }
    sideRight
    {
        type            zeroGradient;
    }
    topbottom
    {
        type            empty;
    }
    frontback
    {
        type            empty;
    }
}


// ************************************************************************* //
