/*--------------------------------*- C++ -*----------------------------------*\
| =========                 |                                                 |
| \\      /  F ield         | OpenFOAM: The Open Source CFD Toolbox           |
|  \\    /   O peration     | Version:  2.4.0                                 |
|   \\  /    A nd           | Web:      www.OpenFOAM.org                      |
|    \\/     M anipulation  |                                                 |
\*---------------------------------------------------------------------------*/
FoamFile
{
    version     2.0;
    format      ascii;
    class       volVectorField;
    location    "0.11";
    object      U.airMean;
}
// * * * * * * * * * * * * * * * * * * * * * * * * * * * * * * * * * * * * * //

dimensions      [0 1 -1 0 0 0 0];

internalField   nonuniform List<vector> 
1000
(
(-7.1157e-14 0 0)
(-3.07344e-14 0 0)
(-6.58478e-14 0 0)
(-3.33182e-14 0 0)
(-7.90185e-14 0 0)
(-2.62517e-14 0 0)
(-6.44137e-14 0 0)
(-4.94603e-14 0 0)
(-4.80004e-14 0 0)
(-3.51397e-14 0 0)
(-5.91172e-14 0 0)
(-7.3134e-14 0 0)
(-4.01653e-14 0 0)
(-8.56523e-14 0 0)
(-1.76024e-14 0 0)
(-7.11315e-14 0 0)
(-4.08261e-15 0 0)
(-4.13793e-14 0 0)
(2.32511e-15 0 0)
(-7.44257e-14 0 0)
(3.64271e-15 0 0)
(-7.40641e-14 0 0)
(-3.47263e-14 0 0)
(-7.66481e-14 0 0)
(-9.3081e-14 0 0)
(-8.7442e-14 0 0)
(-9.28421e-14 0 0)
(-7.18942e-14 0 0)
(-1.27542e-13 0 0)
(-4.22842e-14 0 0)
(-9.6737e-14 0 0)
(-8.38181e-14 0 0)
(-5.67337e-14 0 0)
(-6.25212e-14 0 0)
(-1.54191e-14 0 0)
(-9.56061e-14 0 0)
(3.86271e-14 0 0)
(-6.38451e-14 0 0)
(1.54184e-14 0 0)
(-5.49052e-14 0 0)
(2.10123e-14 0 0)
(-4.37304e-14 0 0)
(3.28776e-15 0 0)
(-2.53533e-14 0 0)
(2.08446e-14 0 0)
(-1.90554e-15 0 0)
(-2.22204e-15 0 0)
(2.77757e-15 0 0)
(-7.67381e-15 0 0)
(1.15946e-14 0 0)
(-2.09672e-14 0 0)
(3.11926e-14 0 0)
(-1.69861e-15 0 0)
(5.27867e-14 0 0)
(2.01861e-14 0 0)
(5.20891e-14 0 0)
(2.37967e-14 0 0)
(3.05016e-14 0 0)
(3.51405e-15 0 0)
(2.7472e-14 0 0)
(-1.44948e-14 0 0)
(5.95045e-14 0 0)
(1.5645e-14 0 0)
(6.26648e-16 0 0)
(3.19873e-14 0 0)
(1.84742e-14 0 0)
(5.32324e-14 0 0)
(3.7775e-14 0 0)
(1.81319e-14 0 0)
(3.13282e-14 0 0)
(-5.56139e-15 0 0)
(1.14524e-14 0 0)
(-2.94162e-14 0 0)
(1.04189e-14 0 0)
(-1.37587e-14 0 0)
(-3.98031e-14 0 0)
(-1.2325e-14 0 0)
(-5.7754e-14 0 0)
(-5.18761e-14 0 0)
(-3.12058e-14 0 0)
(-3.57985e-14 0 0)
(-2.10192e-14 0 0)
(-2.05346e-14 0 0)
(4.75402e-15 0 0)
(-4.97572e-14 0 0)
(-1.67044e-14 0 0)
(-6.25404e-14 0 0)
(-2.37388e-14 0 0)
(-5.80707e-14 0 0)
(-7.62927e-14 0 0)
(-4.46416e-14 0 0)
(-5.69209e-14 0 0)
(-7.3541e-14 0 0)
(-5.81031e-14 0 0)
(-8.51358e-14 0 0)
(-2.98626e-14 0 0)
(-1.15508e-13 0 0)
(-3.05602e-14 0 0)
(-1.14016e-13 0 0)
(-8.75067e-14 0 0)
(-1.15166e-13 0 0)
(-1.01911e-13 0 0)
(-1.26031e-13 0 0)
(-1.1618e-13 0 0)
(-1.22142e-13 0 0)
(-1.49149e-13 0 0)
(-1.08468e-13 0 0)
(-1.36863e-13 0 0)
(-1.74541e-13 0 0)
(-1.42251e-13 0 0)
(-1.8467e-13 0 0)
(-1.41676e-13 0 0)
(-1.8312e-13 0 0)
(-1.59459e-13 0 0)
(-1.88223e-13 0 0)
(-1.68205e-13 0 0)
(-1.57715e-13 0 0)
(-1.27924e-13 0 0)
(-1.2293e-13 0 0)
(-1.54859e-13 0 0)
(-1.03391e-13 0 0)
(-1.32077e-13 0 0)
(-8.61954e-14 0 0)
(-1.20392e-13 0 0)
(-9.23448e-14 0 0)
(-1.38394e-13 0 0)
(-1.01595e-13 0 0)
(-1.47754e-13 0 0)
(-8.82369e-14 0 0)
(-1.75555e-13 0 0)
(-9.74418e-14 0 0)
(-1.93287e-13 0 0)
(-1.46023e-13 0 0)
(-1.6555e-13 0 0)
(-1.22666e-13 0 0)
(-1.53871e-13 0 0)
(-1.40662e-13 0 0)
(-1.3021e-13 0 0)
(-1.05044e-13 0 0)
(-1.16141e-13 0 0)
(-1.21122e-13 0 0)
(-1.04411e-13 0 0)
(-1.54207e-13 0 0)
(-1.03488e-13 0 0)
(-1.60079e-13 0 0)
(-1.01272e-13 0 0)
(-1.25391e-13 0 0)
(-1.34654e-13 0 0)
(-1.13396e-13 0 0)
(-1.38058e-13 0 0)
(-1.30972e-13 0 0)
(-1.56035e-13 0 0)
(-1.50409e-13 0 0)
(-1.45325e-13 0 0)
(-1.29035e-13 0 0)
(-1.25979e-13 0 0)
(-1.44983e-13 0 0)
(-1.28447e-13 0 0)
(-1.48122e-13 0 0)
(-1.17046e-13 0 0)
(-1.58638e-13 0 0)
(-8.16998e-14 0 0)
(-1.21981e-13 0 0)
(-6.97303e-14 0 0)
(-1.04398e-13 0 0)
(-5.07523e-14 0 0)
(-1.19016e-13 0 0)
(-5.6469e-14 0 0)
(-1.20469e-13 0 0)
(-1.1474e-13 0 0)
(-1.1547e-13 0 0)
(-1.02131e-13 0 0)
(-1.41953e-13 0 0)
(-1.03055e-13 0 0)
(-1.56907e-13 0 0)
(-1.16562e-13 0 0)
(-1.74089e-13 0 0)
(-1.3521e-13 0 0)
(-1.95916e-13 0 0)
(-1.86169e-13 0 0)
(-1.74309e-13 0 0)
(-1.65492e-13 0 0)
(-1.42147e-13 0 0)
(-1.99908e-13 0 0)
(-1.25359e-13 0 0)
(-1.90541e-13 0 0)
(-1.18648e-13 0 0)
(-2.27638e-13 0 0)
(-8.70679e-14 0 0)
(-1.9213e-13 0 0)
(-8.38896e-14 0 0)
(-1.76634e-13 0 0)
(-9.53616e-14 0 0)
(-1.59711e-13 0 0)
(-1.38168e-13 0 0)
(-1.63044e-13 0 0)
(-1.5422e-13 0 0)
(-1.47883e-13 0 0)
(-1.38879e-13 0 0)
(-1.60912e-13 0 0)
(-1.27549e-13 0 0)
(-1.97511e-13 0 0)
(-1.16458e-13 0 0)
(-1.69955e-13 0 0)
(-1.48219e-13 0 0)
(-1.44046e-13 0 0)
(-1.15496e-13 0 0)
(-1.33201e-13 0 0)
(-1.38853e-13 0 0)
(-1.11736e-13 0 0)
(-1.04146e-13 0 0)
(-7.81469e-14 0 0)
(-1.05328e-13 0 0)
(-4.19351e-14 0 0)
(-8.26682e-14 0 0)
(-2.66197e-14 0 0)
(-5.15142e-14 0 0)
(-3.731e-14 0 0)
(-2.07865e-14 0 0)
(-4.76074e-15 0 0)
(3.72709e-15 0 0)
(-1.57933e-14 0 0)
(3.16506e-15 0 0)
(-9.41802e-15 0 0)
(-3.50683e-14 0 0)
(-6.40151e-15 0 0)
(-1.62144e-15 0 0)
(-3.99387e-14 0 0)
(1.57584e-15 0 0)
(-3.97968e-14 0 0)
(-4.93763e-14 0 0)
(-5.22701e-14 0 0)
(-7.3147e-14 0 0)
(-2.45075e-14 0 0)
(-6.84961e-14 0 0)
(3.1132e-15 0 0)
(-6.06478e-14 0 0)
(-6.37572e-15 0 0)
(-7.39932e-14 0 0)
(-5.66366e-14 0 0)
(-5.05842e-14 0 0)
(-2.53601e-14 0 0)
(-7.27139e-14 0 0)
(1.994e-14 0 0)
(-2.54566e-14 0 0)
(-4.99336e-15 0 0)
(-2.26661e-14 0 0)
(5.97492e-15 0 0)
(-3.94663e-15 0 0)
(2.46234e-14 0 0)
(2.54052e-14 0 0)
(4.90983e-14 0 0)
(3.34084e-14 0 0)
(-1.20209e-14 0 0)
(3.5514e-14 0 0)
(-1.48177e-14 0 0)
(4.53388e-14 0 0)
(-1.38859e-15 0 0)
(3.96415e-14 0 0)
(-1.87256e-14 0 0)
(5.90974e-14 0 0)
(3.76619e-15 0 0)
(4.82521e-14 0 0)
(3.31888e-14 0 0)
(1.00317e-14 0 0)
(4.08108e-14 0 0)
(-2.67095e-14 0 0)
(7.99227e-14 0 0)
(1.91397e-14 0 0)
(9.5613e-14 0 0)
(2.70073e-14 0 0)
(8.85657e-14 0 0)
(2.95975e-14 0 0)
(7.11124e-14 0 0)
(3.60504e-14 0 0)
(8.74741e-14 0 0)
(3.10963e-14 0 0)
(1.11503e-13 0 0)
(5.92725e-14 0 0)
(1.12317e-13 0 0)
(1.0861e-13 0 0)
(1.26567e-13 0 0)
(1.38808e-13 0 0)
(6.43046e-14 0 0)
(1.57049e-13 0 0)
(1.12111e-13 0 0)
(1.24332e-13 0 0)
(1.33673e-13 0 0)
(1.34344e-13 0 0)
(1.09495e-13 0 0)
(1.25992e-13 0 0)
(1.15315e-13 0 0)
(1.33898e-13 0 0)
(8.23974e-14 0 0)
(1.53374e-13 0 0)
(1.06317e-13 0 0)
(1.24029e-13 0 0)
(1.44124e-13 0 0)
(1.64736e-13 0 0)
(1.17795e-13 0 0)
(1.80116e-13 0 0)
(1.54388e-13 0 0)
(1.58458e-13 0 0)
(1.71551e-13 0 0)
(1.30818e-13 0 0)
(1.89178e-13 0 0)
(1.53548e-13 0 0)
(1.48716e-13 0 0)
(1.32581e-13 0 0)
(1.10599e-13 0 0)
(1.29978e-13 0 0)
(1.04172e-13 0 0)
(1.27814e-13 0 0)
(9.66921e-14 0 0)
(1.36527e-13 0 0)
(1.08616e-13 0 0)
(1.36049e-13 0 0)
(1.06433e-13 0 0)
(9.71959e-14 0 0)
(1.40655e-13 0 0)
(1.18525e-13 0 0)
(1.06433e-13 0 0)
(1.32916e-13 0 0)
(9.86946e-14 0 0)
(1.53219e-13 0 0)
(9.56973e-14 0 0)
(8.62471e-14 0 0)
(9.57681e-14 0 0)
(8.18417e-14 0 0)
(8.2985e-14 0 0)
(1.08158e-13 0 0)
(1.18047e-13 0 0)
(8.09117e-14 0 0)
(1.41559e-13 0 0)
(8.33534e-14 0 0)
(1.4174e-13 0 0)
(8.41154e-14 0 0)
(8.32628e-14 0 0)
(1.00916e-13 0 0)
(1.00096e-13 0 0)
(1.19319e-13 0 0)
(9.61429e-14 0 0)
(1.10095e-13 0 0)
(6.09584e-14 0 0)
(1.04049e-13 0 0)
(2.78924e-14 0 0)
(1.06904e-13 0 0)
(5.25612e-14 0 0)
(6.40132e-14 0 0)
(4.38536e-14 0 0)
(5.9537e-14 0 0)
(5.4996e-14 0 0)
(6.71204e-14 0 0)
(2.87642e-14 0 0)
(8.95153e-14 0 0)
(6.152e-14 0 0)
(4.58432e-14 0 0)
(7.46068e-14 0 0)
(7.34832e-14 0 0)
(8.51294e-14 0 0)
(7.00401e-14 0 0)
(5.77348e-14 0 0)
(3.38608e-14 0 0)
(5.81741e-14 0 0)
(6.77599e-14 0 0)
(8.83074e-14 0 0)
(2.47142e-14 0 0)
(6.93294e-14 0 0)
(3.10961e-14 0 0)
(5.36782e-14 0 0)
(4.72188e-14 0 0)
(7.38963e-14 0 0)
(4.95186e-14 0 0)
(8.13247e-14 0 0)
(5.50415e-14 0 0)
(1.13506e-13 0 0)
(9.11176e-14 0 0)
(1.39344e-13 0 0)
(7.74688e-14 0 0)
(1.51843e-13 0 0)
(9.03297e-14 0 0)
(1.39227e-13 0 0)
(1.10884e-13 0 0)
(1.00723e-13 0 0)
(9.85585e-14 0 0)
(2.37004e-14 0 0)
(1.28976e-13 0 0)
(4.68704e-14 0 0)
(1.09591e-13 0 0)
(3.28597e-14 0 0)
(7.41547e-14 0 0)
(7.05957e-14 0 0)
(1.00244e-13 0 0)
(3.94807e-14 0 0)
(1.10483e-13 0 0)
(4.30204e-14 0 0)
(9.55097e-14 0 0)
(7.00145e-14 0 0)
(1.28434e-13 0 0)
(9.72475e-14 0 0)
(1.18673e-13 0 0)
(1.16451e-13 0 0)
(8.54463e-14 0 0)
(1.3654e-13 0 0)
(1.1545e-13 0 0)
(1.1547e-13 0 0)
(1.23692e-13 0 0)
(1.30972e-13 0 0)
(7.982e-14 0 0)
(1.30695e-13 0 0)
(8.66993e-14 0 0)
(1.42289e-13 0 0)
(9.0336e-14 0 0)
(1.09985e-13 0 0)
(7.84439e-14 0 0)
(1.10496e-13 0 0)
(7.14289e-14 0 0)
(1.07343e-13 0 0)
(1.16341e-14 0 0)
(1.35132e-13 0 0)
(5.05134e-14 0 0)
(8.63244e-14 0 0)
(6.17206e-14 0 0)
(1.01782e-13 0 0)
(7.27209e-14 0 0)
(6.46078e-14 0 0)
(8.53361e-14 0 0)
(4.36016e-14 0 0)
(6.95491e-14 0 0)
(2.77114e-14 0 0)
(8.18995e-14 0 0)
(5.4376e-14 0 0)
(5.3898e-14 0 0)
(9.44568e-14 0 0)
(9.54323e-14 0 0)
(7.18747e-14 0 0)
(7.99876e-14 0 0)
(2.31575e-14 0 0)
(7.00528e-14 0 0)
(-2.25397e-15 0 0)
(8.2584e-14 0 0)
(1.934e-14 0 0)
(5.71857e-14 0 0)
(4.92083e-14 0 0)
(5.51576e-14 0 0)
(5.89814e-14 0 0)
(4.04753e-14 0 0)
(7.50589e-14 0 0)
(4.79876e-14 0 0)
(4.90662e-14 0 0)
(3.94997e-14 0 0)
(2.34933e-14 0 0)
(7.40577e-14 0 0)
(6.03832e-14 0 0)
(3.73877e-14 0 0)
(6.7327e-14 0 0)
(5.36783e-14 0 0)
(1.33002e-14 0 0)
(6.0215e-14 0 0)
(-2.68516e-14 0 0)
(8.83845e-14 0 0)
(-1.21693e-14 0 0)
(5.55253e-14 0 0)
(-3.48292e-14 0 0)
(2.54565e-14 0 0)
(-4.33623e-14 0 0)
(-9.89604e-15 0 0)
(-3.74131e-14 0 0)
(5.69057e-15 0 0)
(-1.67364e-14 0 0)
(-2.24016e-14 0 0)
(-3.081e-15 0 0)
(1.88422e-14 0 0)
(1.72661e-14 0 0)
(8.72183e-16 0 0)
(-3.39784e-15 0 0)
(-1.93459e-14 0 0)
(1.52634e-14 0 0)
(-4.96666e-14 0 0)
(2.47526e-14 0 0)
(-6.07133e-16 0 0)
(2.48494e-14 0 0)
(-3.07985e-14 0 0)
(4.01454e-14 0 0)
(-1.27639e-14 0 0)
(1.35007e-15 0 0)
(-2.2492e-14 0 0)
(-7.60283e-15 0 0)
(-5.74439e-14 0 0)
(1.63359e-14 0 0)
(-2.53987e-14 0 0)
(-3.17677e-14 0 0)
(-2.07544e-14 0 0)
(-2.48625e-14 0 0)
(-4.26969e-15 0 0)
(1.11877e-14 0 0)
(1.94366e-14 0 0)
(-7.9321e-15 0 0)
(3.31952e-14 0 0)
(6.56286e-15 0 0)
(5.18243e-14 0 0)
(2.03215e-14 0 0)
(1.00778e-15 0 0)
(1.75568e-14 0 0)
(-9.68262e-15 0 0)
(2.39451e-14 0 0)
(-3.42026e-14 0 0)
(2.68323e-14 0 0)
(-5.47631e-14 0 0)
(4.73347e-14 0 0)
(-3.40476e-14 0 0)
(2.49722e-14 0 0)
(-8.73316e-15 0 0)
(5.96207e-15 0 0)
(-5.96846e-15 0 0)
(2.90675e-14 0 0)
(7.71921e-15 0 0)
(3.88343e-14 0 0)
(5.08554e-14 0 0)
(8.57834e-15 0 0)
(5.17984e-14 0 0)
(-2.43326e-14 0 0)
(7.27593e-14 0 0)
(-4.13204e-16 0 0)
(6.97364e-14 0 0)
(1.94819e-14 0 0)
(4.19671e-14 0 0)
(2.26989e-14 0 0)
(6.25856e-14 0 0)
(7.22197e-15 0 0)
(2.31958e-14 0 0)
(2.00394e-16 0 0)
(8.37785e-15 0 0)
(6.81492e-15 0 0)
(4.06687e-14 0 0)
(2.98881e-14 0 0)
(3.29174e-14 0 0)
(2.77434e-14 0 0)
(-1.26591e-15 0 0)
(1.19176e-14 0 0)
(-7.30555e-15 0 0)
(-4.39254e-15 0 0)
(-4.00471e-15 0 0)
(-5.24522e-15 0 0)
(4.39278e-16 0 0)
(-3.51201e-14 0 0)
(1.50762e-14 0 0)
(-3.74261e-14 0 0)
(-1.25249e-14 0 0)
(-3.24717e-14 0 0)
(3.72054e-15 0 0)
(-2.49593e-14 0 0)
(-1.26864e-14 0 0)
(-1.78345e-14 0 0)
(3.61587e-16 0 0)
(1.25317e-15 0 0)
(-1.26282e-14 0 0)
(1.70014e-14 0 0)
(2.17619e-14 0 0)
(2.84217e-14 0 0)
(6.81494e-15 0 0)
(4.75416e-14 0 0)
(1.78154e-14 0 0)
(2.85766e-14 0 0)
(7.54462e-15 0 0)
(-4.10691e-14 0 0)
(3.92927e-14 0 0)
(-1.63552e-14 0 0)
(1.27832e-14 0 0)
(-1.48114e-14 0 0)
(3.83884e-14 0 0)
(-1.44032e-15 0 0)
(-9.15962e-15 0 0)
(-3.11927e-14 0 0)
(-1.93656e-14 0 0)
(-3.04499e-14 0 0)
(-1.31322e-14 0 0)
(-6.83424e-15 0 0)
(-5.12751e-14 0 0)
(-7.66759e-15 0 0)
(-3.16126e-14 0 0)
(2.66904e-14 0 0)
(1.17758e-14 0 0)
(7.97356e-14 0 0)
(5.74767e-14 0 0)
(2.00838e-13 0 0)
(2.62759e-13 0 0)
(5.12527e-13 0 0)
(7.50921e-13 0 0)
(1.28404e-12 0 0)
(1.98493e-12 0 0)
(3.31058e-12 0 0)
(5.19541e-12 0 0)
(8.35626e-12 0 0)
(1.31844e-11 0 0)
(2.08616e-11 0 0)
(3.28141e-11 0 0)
(5.1444e-11 0 0)
(8.02369e-11 0 0)
(1.24687e-10 0 0)
(1.93129e-10 0 0)
(2.97808e-10 0 0)
(4.57489e-10 0 0)
(7.00024e-10 0 0)
(1.06687e-09 0 0)
(1.61938e-09 0 0)
(2.44825e-09 0 0)
(3.68622e-09 0 0)
(5.52764e-09 0 0)
(8.25491e-09 0 0)
(1.22769e-08 0 0)
(1.81826e-08 0 0)
(2.68167e-08 0 0)
(3.93846e-08 0 0)
(5.7598e-08 0 0)
(8.38761e-08 0 0)
(1.21621e-07 0 0)
(1.75592e-07 0 0)
(2.52416e-07 0 0)
(3.61274e-07 0 0)
(5.14813e-07 0 0)
(7.30376e-07 0 0)
(1.03161e-06 0 0)
(1.45059e-06 0 0)
(2.03061e-06 0 0)
(2.82974e-06 0 0)
(3.9255e-06 0 0)
(5.42076e-06 0 0)
(7.45132e-06 0 0)
(1.01953e-05 0 0)
(1.38853e-05 0 0)
(1.88229e-05 0 0)
(2.53969e-05 0 0)
(3.41059e-05 0 0)
(4.55853e-05 0 0)
(6.06395e-05 0 0)
(8.0281e-05 0 0)
(0.000105776 0 0)
(0.000138699 0 0)
(0.000180992 0 0)
(0.00023504 0 0)
(0.000303748 0 0)
(0.00039063 0 0)
(0.000499916 0 0)
(0.000636652 0 0)
(0.000806823 0 0)
(0.00101748 0 0)
(0.00127685 0 0)
(0.00159451 0 0)
(0.00198146 0 0)
(0.00245032 0 0)
(0.00301539 0 0)
(0.00369281 0 0)
(0.00450063 0 0)
(0.00545888 0 0)
(0.00658965 0 0)
(0.00791712 0 0)
(0.00946752 0 0)
(0.0112691 0 0)
(0.0133523 0 0)
(0.015749 0 0)
(0.0184933 0 0)
(0.0216206 0 0)
(0.0251678 0 0)
(0.0291729 0 0)
(0.033675 0 0)
(0.0387139 0 0)
(0.0443296 0 0)
(0.0505625 0 0)
(0.057453 0 0)
(0.0650409 0 0)
(0.0733657 0 0)
(0.0824659 0 0)
(0.0923792 0 0)
(0.103142 0 0)
(0.114789 0 0)
(0.127354 0 0)
(0.140869 0 0)
(0.155365 0 0)
(0.170868 0 0)
(0.187408 0 0)
(0.205007 0 0)
(0.22369 0 0)
(0.243477 0 0)
(0.264389 0 0)
(0.286443 0 0)
(0.309656 0 0)
(0.334041 0 0)
(0.359614 0 0)
(0.386385 0 0)
(0.414365 0 0)
(0.443564 0 0)
(0.473991 0 0)
(0.505653 0 0)
(0.538557 0 0)
(0.572709 0 0)
(0.608113 0 0)
(0.644776 0 0)
(0.6827 0 0)
(0.721889 0 0)
(0.762348 0 0)
(0.804078 0 0)
(0.847083 0 0)
(0.891364 0 0)
(0.936924 0 0)
(0.983766 0 0)
(1.03189 0 0)
(1.0813 0 0)
(1.132 0 0)
(1.18398 0 0)
(1.23726 0 0)
(1.29183 0 0)
(1.34769 0 0)
(1.40485 0 0)
(1.46331 0 0)
(1.52306 0 0)
(1.58412 0 0)
(1.64648 0 0)
(1.71015 0 0)
(1.77512 0 0)
(1.84141 0 0)
(1.909 0 0)
(1.97792 0 0)
(2.04815 0 0)
(2.11969 0 0)
(2.19256 0 0)
(2.26676 0 0)
(2.34228 0 0)
(2.41913 0 0)
(2.49731 0 0)
(2.57683 0 0)
(2.65769 0 0)
(2.73989 0 0)
(2.82344 0 0)
(2.90833 0 0)
(2.99457 0 0)
(3.08217 0 0)
(3.17112 0 0)
(3.26144 0 0)
(3.35312 0 0)
(3.44617 0 0)
(3.54059 0 0)
(3.63638 0 0)
(3.73355 0 0)
(3.83211 0 0)
(3.93205 0 0)
(4.03339 0 0)
(4.13611 0 0)
(4.24024 0 0)
(4.34577 0 0)
(4.45271 0 0)
(4.56105 0 0)
(4.67081 0 0)
(4.78199 0 0)
(4.8946 0 0)
(5.00863 0 0)
(5.12409 0 0)
(5.241 0 0)
(5.35934 0 0)
(5.47913 0 0)
(5.60036 0 0)
(5.72306 0 0)
(5.84721 0 0)
(5.97283 0 0)
(6.09991 0 0)
(6.22847 0 0)
(6.35851 0 0)
(6.49004 0 0)
(6.62305 0 0)
(6.75755 0 0)
(6.89356 0 0)
(7.03106 0 0)
(7.17008 0 0)
(7.31061 0 0)
(7.45266 0 0)
(7.59624 0 0)
(7.74135 0 0)
(7.88799 0 0)
(8.03617 0 0)
(8.18591 0 0)
(8.33719 0 0)
(8.49004 0 0)
(8.64445 0 0)
(8.80043 0 0)
(8.95799 0 0)
(9.11713 0 0)
(9.27786 0 0)
(9.44019 0 0)
(9.60413 0 0)
(9.76967 0 0)
(9.93683 0 0)
(10.1056 0 0)
(10.276 0 0)
(10.4481 0 0)
(10.6218 0 0)
(10.7971 0 0)
(10.9741 0 0)
(11.1528 0 0)
(11.3331 0 0)
(11.5151 0 0)
(11.6989 0 0)
(11.8843 0 0)
(12.0714 0 0)
(12.2602 0 0)
(12.4508 0 0)
(12.643 0 0)
(12.8371 0 0)
(13.0328 0 0)
(13.2304 0 0)
(13.4296 0 0)
(13.6307 0 0)
(13.8335 0 0)
(14.0382 0 0)
(14.2446 0 0)
(14.4528 0 0)
(14.6629 0 0)
(14.8748 0 0)
(15.0885 0 0)
(15.3041 0 0)
(15.5216 0 0)
(15.7409 0 0)
(15.9621 0 0)
(16.1851 0 0)
(16.4101 0 0)
(16.637 0 0)
(16.8658 0 0)
(17.0966 0 0)
(17.3293 0 0)
(17.564 0 0)
(17.8006 0 0)
(18.0392 0 0)
(18.2799 0 0)
(18.5225 0 0)
(18.7671 0 0)
(19.0138 0 0)
(19.2625 0 0)
(19.5134 0 0)
(19.7662 0 0)
(20.0212 0 0)
(20.2782 0 0)
(20.5375 0 0)
(20.7986 0 0)
(21.0623 0 0)
(21.3277 0 0)
(21.5958 0 0)
(21.8654 0 0)
(22.1381 0 0)
(22.412 0 0)
(22.6894 0 0)
(22.9675 0 0)
(23.2496 0 0)
(23.5322 0 0)
(23.8191 0 0)
(24.1061 0 0)
(24.3979 0 0)
(24.6895 0 0)
(24.9862 0 0)
(25.2825 0 0)
(25.5842 0 0)
(25.8852 0 0)
(26.192 0 0)
(26.4978 0 0)
(26.8098 0 0)
(27.1206 0 0)
(27.4378 0 0)
(27.7537 0 0)
(28.0761 0 0)
(28.3973 0 0)
(28.725 0 0)
(29.0518 0 0)
(29.3845 0 0)
(29.7172 0 0)
(30.055 0 0)
(30.3941 0 0)
(30.7365 0 0)
(31.0826 0 0)
(31.4293 0 0)
(31.783 0 0)
(32.1337 0 0)
(32.4956 0 0)
(32.8501 0 0)
(33.2204 0 0)
(33.5788 0 0)
(33.9578 0 0)
(34.3203 0 0)
(34.7081 0 0)
(35.0748 0 0)
(35.4717 0 0)
(35.8428 0 0)
(36.2487 0 0)
(36.6246 0 0)
(37.0398 0 0)
(37.4204 0 0)
(37.8449 0 0)
(38.2305 0 0)
(38.6641 0 0)
(39.0542 0 0)
(39.4962 0 0)
(39.8897 0 0)
(40.3378 0 0)
(40.7309 0 0)
(41.1836 0 0)
(41.5684 0 0)
(42.0174 0 0)
(42.3977 0 0)
(42.8496 0 0)
(43.2319 0 0)
(43.6921 0 0)
(44.079 0 0)
(44.5493 0 0)
(44.9402 0 0)
(45.4195 0 0)
(45.8135 0 0)
(46.3006 0 0)
(46.6973 0 0)
(47.1917 0 0)
(47.5911 0 0)
(48.0931 0 0)
(48.4954 0 0)
(49.0052 0 0)
(49.4104 0 0)
(49.9281 0 0)
(50.3364 0 0)
(50.8617 0 0)
(51.273 0 0)
(51.8057 0 0)
(52.2203 0 0)
(52.7603 0 0)
(53.178 0 0)
(53.7253 0 0)
(54.1462 0 0)
(54.7007 0 0)
(55.125 0 0)
(55.6865 0 0)
(56.1141 0 0)
(56.6826 0 0)
(57.1135 0 0)
(57.6888 0 0)
(58.123 0 0)
(58.7051 0 0)
(59.1427 0 0)
(59.7313 0 0)
(60.1723 0 0)
(60.7674 0 0)
(61.2117 0 0)
(61.8131 0 0)
(62.2608 0 0)
(62.8683 0 0)
(63.3192 0 0)
(63.9327 0 0)
(64.3868 0 0)
(65.0061 0 0)
(65.4633 0 0)
(66.0882 0 0)
(66.5483 0 0)
(67.1786 0 0)
(67.6415 0 0)
(68.2771 0 0)
(68.7424 0 0)
(69.3831 0 0)
(69.8506 0 0)
(70.4961 0 0)
(70.9655 0 0)
(71.6156 0 0)
(72.0863 0 0)
(72.7409 0 0)
(73.2125 0 0)
(73.8711 0 0)
(74.3432 0 0)
(75.0056 0 0)
(75.4775 0 0)
(76.143 0 0)
(76.6141 0 0)
(77.2821 0 0)
(77.7512 0 0)
(78.421 0 0)
(78.8875 0 0)
(79.5584 0 0)
(80.0211 0 0)
(80.6925 0 0)
(81.1501 0 0)
(81.8206 0 0)
(82.2715 0 0)
(82.9397 0 0)
(83.3818 0 0)
(84.0463 0 0)
(84.4781 0 0)
(85.1378 0 0)
(85.5559 0 0)
(86.2069 0 0)
(86.606 0 0)
(87.2452 0 0)
(87.6239 0 0)
(88.2504 0 0)
(88.6084 0 0)
(89.2256 0 0)
(89.565 0 0)
(90.1836 0 0)
(90.5163 0 0)
(91.9568 0 0)
)
;

boundaryField
{
    sideLeft
    {
        type            symmetryPlane;
    }
    sideRight
    {
        type            calculated;
        value           uniform (91.5773 0 0);
    }
    topbottom
    {
        type            empty;
    }
    frontback
    {
        type            empty;
    }
}


// ************************************************************************* //
