/*--------------------------------*- C++ -*----------------------------------*\
| =========                 |                                                 |
| \\      /  F ield         | OpenFOAM: The Open Source CFD Toolbox           |
|  \\    /   O peration     | Version:  2.4.0                                 |
|   \\  /    A nd           | Web:      www.OpenFOAM.org                      |
|    \\/     M anipulation  |                                                 |
\*---------------------------------------------------------------------------*/
FoamFile
{
    version     2.0;
    format      ascii;
    class       volVectorField;
    location    "0.11";
    object      U.air;
}
// * * * * * * * * * * * * * * * * * * * * * * * * * * * * * * * * * * * * * //

dimensions      [0 1 -1 0 0 0 0];

internalField   nonuniform List<vector> 
1000
(
(-1.0658e-13 0 0)
(-2.41585e-13 0 0)
(-2.06057e-13 0 0)
(-9.94764e-14 0 0)
(7.10597e-15 0 0)
(4.26321e-14 0 0)
(-2.77111e-13 0 0)
(-4.83169e-13 0 0)
(-4.83169e-13 0 0)
(-3.90799e-13 0 0)
(-2.4869e-13 0 0)
(-4.90274e-13 0 0)
(-5.25802e-13 0 0)
(-5.40012e-13 0 0)
(-6.75016e-13 0 0)
(-4.97379e-13 0 0)
(-5.47118e-13 0 0)
(-4.61852e-13 0 0)
(-2.13163e-13 0 0)
(-4.26317e-14 0 0)
(-4.97388e-14 0 0)
(-4.40536e-13 0 0)
(-6.39493e-14 0 0)
(-1.56319e-13 0 0)
(-7.10542e-14 0 0)
(2.13163e-14 0 0)
(-1.35003e-13 0 0)
(-1.06582e-13 0 0)
(-1.13686e-13 0 0)
(2.13155e-14 0 0)
(-7.81593e-14 0 0)
(9.23707e-14 0 0)
(2.70006e-13 0 0)
(9.23708e-14 0 0)
(1.63424e-13 0 0)
(4.97392e-14 0 0)
(-8.52664e-14 0 0)
(-3.19743e-13 0 0)
(-1.84742e-13 0 0)
(-5.68427e-14 0 0)
(4.97372e-14 0 0)
(4.26332e-14 0 0)
(3.4106e-13 0 0)
(1.98952e-13 0 0)
(5.6843e-14 0 0)
(6.39489e-14 0 0)
(2.34479e-13 0 0)
(3.62377e-13 0 0)
(2.70006e-13 0 0)
(3.90798e-13 0 0)
(5.47118e-13 0 0)
(9.09494e-13 0 0)
(7.03438e-13 0 0)
(6.96332e-13 0 0)
(9.45022e-13 0 0)
(1.0445e-12 0 0)
(1.12266e-12 0 0)
(1.1795e-12 0 0)
(9.87655e-13 0 0)
(7.81597e-13 0 0)
(7.95808e-13 0 0)
(1.03739e-12 0 0)
(7.67386e-13 0 0)
(6.96332e-13 0 0)
(6.96332e-13 0 0)
(5.82645e-13 0 0)
(7.10542e-13 0 0)
(7.4607e-13 0 0)
(1.06581e-12 0 0)
(1.08002e-12 0 0)
(9.23706e-13 0 0)
(8.17124e-13 0 0)
(5.40013e-13 0 0)
(4.54747e-13 0 0)
(6.03961e-13 0 0)
(7.74492e-13 0 0)
(5.96855e-13 0 0)
(6.03962e-13 0 0)
(6.82121e-13 0 0)
(4.76063e-13 0 0)
(4.1922e-13 0 0)
(5.18696e-13 0 0)
(5.04485e-13 0 0)
(3.12638e-13 0 0)
(2.84222e-14 0 0)
(2.27373e-13 0 0)
(3.62377e-13 0 0)
(4.90274e-13 0 0)
(5.54223e-13 0 0)
(4.54748e-13 0 0)
(2.84215e-14 0 0)
(-2.91323e-13 0 0)
(-1.27897e-13 0 0)
(6.39487e-14 0 0)
(-5.6843e-14 0 0)
(5.68426e-14 0 0)
(1.06582e-13 0 0)
(7.10534e-14 0 0)
(-9.23699e-14 0 0)
(-1.98952e-13 0 0)
(-2.84215e-14 0 0)
(2.27373e-13 0 0)
(2.70006e-13 0 0)
(3.05533e-13 0 0)
(7.81596e-14 0 0)
(9.94764e-14 0 0)
(2.13159e-14 0 0)
(-2.34479e-13 0 0)
(-7.88702e-13 0 0)
(-8.88179e-13 0 0)
(-8.45545e-13 0 0)
(-9.30811e-13 0 0)
(-6.96332e-13 0 0)
(-5.96856e-13 0 0)
(-4.05009e-13 0 0)
(2.13163e-14 0 0)
(-4.26325e-14 0 0)
(-1.5632e-13 0 0)
(6.39487e-14 0 0)
(-9.23701e-14 0 0)
(-7.10588e-15 0 0)
(-5.68431e-14 0 0)
(-1.06582e-13 0 0)
(-4.05009e-13 0 0)
(-3.76588e-13 0 0)
(-2.77111e-13 0 0)
(-2.06058e-13 0 0)
(-3.26849e-13 0 0)
(-5.47119e-13 0 0)
(-6.75015e-13 0 0)
(-5.82646e-13 0 0)
(-7.88702e-13 0 0)
(-7.60281e-13 0 0)
(-7.03437e-13 0 0)
(-7.38965e-13 0 0)
(-6.03961e-13 0 0)
(-4.9738e-13 0 0)
(-6.39488e-13 0 0)
(-6.18172e-13 0 0)
(-4.54747e-13 0 0)
(-3.2685e-13 0 0)
(-1.5632e-13 0 0)
(-4.47641e-13 0 0)
(-5.25802e-13 0 0)
(-6.25277e-13 0 0)
(-5.89751e-13 0 0)
(-5.82645e-13 0 0)
(-4.47642e-13 0 0)
(-7.10564e-15 0 0)
(1.63425e-13 0 0)
(4.12115e-13 0 0)
(3.55272e-13 0 0)
(1.63425e-13 0 0)
(3.33955e-13 0 0)
(4.26326e-13 0 0)
(6.89226e-13 0 0)
(7.38965e-13 0 0)
(9.23705e-13 0 0)
(8.10019e-13 0 0)
(6.75015e-13 0 0)
(8.66863e-13 0 0)
(1.11555e-12 0 0)
(1.06581e-12 0 0)
(1.08713e-12 0 0)
(9.59233e-13 0 0)
(8.66862e-13 0 0)
(6.18173e-13 0 0)
(6.03961e-13 0 0)
(6.67911e-13 0 0)
(6.46594e-13 0 0)
(8.52651e-13 0 0)
(1.20082e-12 0 0)
(1.09424e-12 0 0)
(9.166e-13 0 0)
(2.77112e-13 0 0)
(1.13686e-13 0 0)
(-2.20268e-13 0 0)
(-2.91323e-13 0 0)
(-8.52647e-14 0 0)
(1.42109e-14 0 0)
(-2.13163e-13 0 0)
(-2.91322e-13 0 0)
(-2.84217e-13 0 0)
(-5.54223e-13 0 0)
(-7.10544e-13 0 0)
(-8.81072e-13 0 0)
(-6.39489e-13 0 0)
(-7.24752e-13 0 0)
(-9.02391e-13 0 0)
(-1.11555e-12 0 0)
(-8.17125e-13 0 0)
(-8.24229e-13 0 0)
(-5.82646e-13 0 0)
(-3.97904e-13 0 0)
(-2.06058e-13 0 0)
(-3.90798e-13 0 0)
(-3.2685e-13 0 0)
(-5.54223e-13 0 0)
(-5.54224e-13 0 0)
(-3.26849e-13 0 0)
(-4.61853e-13 0 0)
(-5.54222e-13 0 0)
(-2.55796e-13 0 0)
(-4.40536e-13 0 0)
(-3.55271e-13 0 0)
(-4.61853e-13 0 0)
(-3.55272e-13 0 0)
(-4.61853e-13 0 0)
(-5.75539e-13 0 0)
(-6.18172e-13 0 0)
(-7.03437e-13 0 0)
(-5.96856e-13 0 0)
(-6.18172e-13 0 0)
(-6.18173e-13 0 0)
(-7.31859e-13 0 0)
(-8.73968e-13 0 0)
(-1.00187e-12 0 0)
(-1.18661e-12 0 0)
(-1.08713e-12 0 0)
(-7.81597e-13 0 0)
(-5.47118e-13 0 0)
(-6.25277e-13 0 0)
(-7.10543e-13 0 0)
(-7.38965e-13 0 0)
(-7.38964e-13 0 0)
(-5.68434e-13 0 0)
(-2.77112e-13 0 0)
(-7.81592e-14 0 0)
(4.26321e-14 0 0)
(1.84741e-13 0 0)
(1.91847e-13 0 0)
(1.13687e-13 0 0)
(-7.10539e-14 0 0)
(-2.13168e-14 0 0)
(-3.05533e-13 0 0)
(-3.62377e-13 0 0)
(-4.97379e-13 0 0)
(-4.40537e-13 0 0)
(-4.9738e-13 0 0)
(-2.84217e-13 0 0)
(-4.76064e-13 0 0)
(-5.04486e-13 0 0)
(-6.32382e-13 0 0)
(-6.25278e-13 0 0)
(-3.62377e-13 0 0)
(-4.76064e-13 0 0)
(-5.11591e-13 0 0)
(-2.98428e-13 0 0)
(-2.98428e-13 0 0)
(-3.2685e-13 0 0)
(-1.13687e-13 0 0)
(-1.70531e-13 0 0)
(-4.33431e-13 0 0)
(-3.69482e-13 0 0)
(-1.42114e-14 0 0)
(1.13687e-13 0 0)
(1.20792e-13 0 0)
(1.49214e-13 0 0)
(2.91322e-13 0 0)
(4.33432e-13 0 0)
(7.38964e-13 0 0)
(7.74492e-13 0 0)
(7.4607e-13 0 0)
(6.03961e-13 0 0)
(6.18172e-13 0 0)
(5.96855e-13 0 0)
(5.47119e-13 0 0)
(4.90274e-13 0 0)
(1.49215e-13 0 0)
(3.05533e-13 0 0)
(2.41585e-13 0 0)
(4.47641e-13 0 0)
(1.77636e-13 0 0)
(3.19744e-13 0 0)
(1.77636e-13 0 0)
(7.10537e-14 0 0)
(5.68441e-14 0 0)
(4.26318e-14 0 0)
(1.84742e-13 0 0)
(4.1922e-13 0 0)
(3.90799e-13 0 0)
(3.41061e-13 0 0)
(1.7053e-13 0 0)
(5.68444e-14 0 0)
(7.8159e-14 0 0)
(-6.39486e-14 0 0)
(4.9738e-14 0 0)
(5.68434e-14 0 0)
(1.42107e-14 0 0)
(-3.5527e-14 0 0)
(-3.55273e-14 0 0)
(-2.84215e-14 0 0)
(2.27373e-13 0 0)
(-1.06581e-13 0 0)
(-3.76588e-13 0 0)
(-1.42108e-13 0 0)
(1.42109e-13 0 0)
(8.52651e-14 0 0)
(-4.2633e-14 0 0)
(-1.91846e-13 0 0)
(-4.2633e-14 0 0)
(-1.06581e-13 0 0)
(7.81597e-14 0 0)
(6.39486e-14 0 0)
(-4.2632e-14 0 0)
(9.94755e-14 0 0)
(1.49214e-13 0 0)
(7.10542e-14 0 0)
(1.84741e-13 0 0)
(-7.10516e-15 0 0)
(2.06057e-13 0 0)
(2.4869e-13 0 0)
(1.20792e-13 0 0)
(3.74769e-19 0 0)
(-1.42112e-14 0 0)
(-2.1316e-14 0 0)
(-7.10546e-14 0 0)
(-2.13163e-13 0 0)
(-2.77111e-13 0 0)
(-1.06582e-13 0 0)
(1.13687e-13 0 0)
(3.83693e-13 0 0)
(4.12115e-13 0 0)
(6.39493e-14 0 0)
(-1.77636e-13 0 0)
(-2.1316e-14 0 0)
(-7.81596e-14 0 0)
(-1.13687e-13 0 0)
(-4.26325e-14 0 0)
(2.84219e-14 0 0)
(-1.20792e-13 0 0)
(-2.84217e-13 0 0)
(-3.26849e-13 0 0)
(-2.3448e-13 0 0)
(-3.4106e-13 0 0)
(-2.06058e-13 0 0)
(-2.34479e-13 0 0)
(-3.83693e-13 0 0)
(-4.05009e-13 0 0)
(-1.7053e-13 0 0)
(-7.10569e-15 0 0)
(2.13164e-14 0 0)
(5.68431e-14 0 0)
(-7.10489e-15 0 0)
(3.4106e-13 0 0)
(3.55272e-13 0 0)
(4.68958e-13 0 0)
(6.60805e-13 0 0)
(6.82121e-13 0 0)
(6.6791e-13 0 0)
(6.03961e-13 0 0)
(6.96332e-13 0 0)
(7.10543e-13 0 0)
(6.75016e-13 0 0)
(7.24753e-13 0 0)
(4.12115e-13 0 0)
(3.19744e-13 0 0)
(2.27374e-13 0 0)
(2.20268e-13 0 0)
(1.91846e-13 0 0)
(2.27374e-13 0 0)
(4.40536e-13 0 0)
(3.83693e-13 0 0)
(4.26326e-13 0 0)
(8.59757e-13 0 0)
(1.11555e-12 0 0)
(1.05871e-12 0 0)
(1.25766e-12 0 0)
(1.38556e-12 0 0)
(1.35714e-12 0 0)
(1.30029e-12 0 0)
(1.20082e-12 0 0)
(1.28608e-12 0 0)
(1.29319e-12 0 0)
(1.4353e-12 0 0)
(1.53477e-12 0 0)
(1.27187e-12 0 0)
(1.21503e-12 0 0)
(9.45023e-13 0 0)
(6.96331e-13 0 0)
(5.04486e-13 0 0)
(5.75539e-13 0 0)
(5.18696e-13 0 0)
(5.25802e-13 0 0)
(7.10542e-13 0 0)
(7.53176e-13 0 0)
(7.10542e-13 0 0)
(6.39489e-13 0 0)
(6.18171e-13 0 0)
(5.82646e-13 0 0)
(8.45546e-13 0 0)
(9.9476e-13 0 0)
(1.14397e-12 0 0)
(1.12976e-12 0 0)
(1.15818e-12 0 0)
(9.23706e-13 0 0)
(8.02913e-13 0 0)
(7.3186e-13 0 0)
(5.04485e-13 0 0)
(3.97904e-13 0 0)
(5.61329e-13 0 0)
(8.24229e-13 0 0)
(9.87655e-13 0 0)
(7.74491e-13 0 0)
(6.32383e-13 0 0)
(5.40012e-13 0 0)
(5.04485e-13 0 0)
(3.4106e-13 0 0)
(1.84742e-13 0 0)
(2.70006e-13 0 0)
(1.63425e-13 0 0)
(4.61852e-13 0 0)
(3.90799e-13 0 0)
(3.76587e-13 0 0)
(1.63425e-13 0 0)
(4.97376e-14 0 0)
(-1.35003e-13 0 0)
(4.26319e-14 0 0)
(1.06583e-13 0 0)
(2.34478e-13 0 0)
(1.42109e-13 0 0)
(6.39486e-14 0 0)
(1.35003e-13 0 0)
(-1.42112e-14 0 0)
(-9.23705e-14 0 0)
(2.13164e-14 0 0)
(4.12114e-13 0 0)
(2.34479e-13 0 0)
(2.13159e-14 0 0)
(7.10548e-14 0 0)
(-2.84222e-14 0 0)
(-1.42107e-14 0 0)
(-1.91846e-13 0 0)
(-4.33431e-13 0 0)
(-4.61853e-13 0 0)
(-2.84216e-14 0 0)
(3.97904e-13 0 0)
(3.55272e-13 0 0)
(2.98427e-13 0 0)
(5.7554e-13 0 0)
(5.25801e-13 0 0)
(2.70007e-13 0 0)
(1.49214e-13 0 0)
(-1.35003e-13 0 0)
(-2.84217e-13 0 0)
(-6.25278e-13 0 0)
(-5.61329e-13 0 0)
(-5.54224e-13 0 0)
(-4.33431e-13 0 0)
(-4.61853e-13 0 0)
(-6.11067e-13 0 0)
(-7.03437e-13 0 0)
(-7.24754e-13 0 0)
(-6.82121e-13 0 0)
(-3.62376e-13 0 0)
(3.55269e-14 0 0)
(2.20268e-13 0 0)
(3.90799e-13 0 0)
(3.69482e-13 0 0)
(3.55282e-14 0 0)
(3.55259e-14 0 0)
(-8.52643e-14 0 0)
(-4.26334e-14 0 0)
(-3.48165e-13 0 0)
(-2.98429e-13 0 0)
(-3.76587e-13 0 0)
(-3.12639e-13 0 0)
(-3.69482e-13 0 0)
(-4.12115e-13 0 0)
(-3.76588e-13 0 0)
(-6.03961e-13 0 0)
(-3.48166e-13 0 0)
(-7.81599e-14 0 0)
(-3.48166e-13 0 0)
(-3.33955e-13 0 0)
(-3.2685e-13 0 0)
(-2.98428e-13 0 0)
(-1.91847e-13 0 0)
(-1.70529e-13 0 0)
(2.84212e-14 0 0)
(-7.10521e-15 0 0)
(-7.81602e-14 0 0)
(-3.55265e-14 0 0)
(5.47117e-13 0 0)
(2.84217e-13 0 0)
(2.77111e-13 0 0)
(3.69482e-13 0 0)
(5.32907e-13 0 0)
(3.90799e-13 0 0)
(5.8975e-13 0 0)
(4.0501e-13 0 0)
(4.26326e-13 0 0)
(4.54747e-13 0 0)
(3.76588e-13 0 0)
(4.90275e-13 0 0)
(2.84217e-13 0 0)
(2.4869e-13 0 0)
(2.13167e-14 0 0)
(2.13162e-13 0 0)
(1.77636e-13 0 0)
(4.97375e-14 0 0)
(-2.34479e-13 0 0)
(-4.33431e-13 0 0)
(-2.20268e-13 0 0)
(-2.55795e-13 0 0)
(-3.48166e-13 0 0)
(-1.20792e-13 0 0)
(-2.84225e-14 0 0)
(2.84227e-14 0 0)
(3.26849e-13 0 0)
(3.19745e-13 0 0)
(6.75015e-13 0 0)
(5.11591e-13 0 0)
(4.54747e-13 0 0)
(4.47642e-13 0 0)
(7.10542e-13 0 0)
(5.04486e-13 0 0)
(1.13687e-13 0 0)
(2.20268e-13 0 0)
(1.49214e-13 0 0)
(3.55271e-13 0 0)
(3.55281e-14 0 0)
(-2.91323e-13 0 0)
(-5.8975e-13 0 0)
(-3.97905e-13 0 0)
(-2.70006e-13 0 0)
(-1.84741e-13 0 0)
(1.42112e-14 0 0)
(3.05533e-13 0 0)
(2.27374e-13 0 0)
(3.83693e-13 0 0)
(3.33955e-13 0 0)
(3.55271e-13 0 0)
(4.9738e-13 0 0)
(4.90274e-13 0 0)
(4.90275e-13 0 0)
(1.98952e-13 0 0)
(1.20792e-13 0 0)
(2.41585e-13 0 0)
(2.55795e-13 0 0)
(-3.5527e-14 0 0)
(7.10543e-15 0 0)
(1.06581e-13 0 0)
(-2.4869e-13 0 0)
(4.26323e-14 0 0)
(4.25813e-19 0 0)
(-1.35004e-13 0 0)
(-2.06057e-13 0 0)
(-1.13687e-13 0 0)
(-3.48166e-13 0 0)
(-2.13163e-13 0 0)
(-3.83693e-13 0 0)
(-8.31335e-13 0 0)
(-8.31335e-13 0 0)
(-9.45022e-13 0 0)
(-7.67386e-13 0 0)
(-5.32907e-13 0 0)
(-5.11591e-13 0 0)
(-5.54223e-13 0 0)
(-5.96856e-13 0 0)
(-7.10542e-13 0 0)
(-5.47118e-13 0 0)
(-5.40012e-13 0 0)
(-7.38965e-13 0 0)
(-6.46594e-13 0 0)
(-7.10542e-13 0 0)
(-7.95809e-13 0 0)
(-9.37916e-13 0 0)
(-8.95284e-13 0 0)
(-7.46069e-13 0 0)
(-6.60805e-13 0 0)
(-6.46594e-13 0 0)
(-7.74492e-13 0 0)
(-6.03961e-13 0 0)
(-3.2685e-13 0 0)
(1.91847e-13 0 0)
(4.12115e-13 0 0)
(5.25801e-13 0 0)
(9.0239e-13 0 0)
(1.71951e-12 0 0)
(3.26139e-12 0 0)
(5.22959e-12 0 0)
(8.26361e-12 0 0)
(1.30242e-11 0 0)
(2.01297e-11 0 0)
(3.18465e-11 0 0)
(5.0612e-11 0 0)
(8.12079e-11 0 0)
(1.30122e-10 0 0)
(2.08168e-10 0 0)
(3.31333e-10 0 0)
(5.26249e-10 0 0)
(8.32905e-10 0 0)
(1.31361e-09 0 0)
(2.06358e-09 0 0)
(3.22907e-09 0 0)
(5.03358e-09 0 0)
(7.81511e-09 0 0)
(1.20855e-08 0 0)
(1.86152e-08 0 0)
(2.85573e-08 0 0)
(4.36317e-08 0 0)
(6.63914e-08 0 0)
(1.0061e-07 0 0)
(1.51835e-07 0 0)
(2.2819e-07 0 0)
(3.41508e-07 0 0)
(5.08949e-07 0 0)
(7.5527e-07 0 0)
(1.11602e-06 0 0)
(1.64201e-06 0 0)
(2.40544e-06 0 0)
(3.50848e-06 0 0)
(5.09491e-06 0 0)
(7.36601e-06 0 0)
(1.06021e-05 0 0)
(1.51918e-05 0 0)
(2.16701e-05 0 0)
(3.07709e-05 0 0)
(4.34942e-05 0 0)
(6.11957e-05 0 0)
(8.57026e-05 0 0)
(0.000119464 0 0)
(0.000165744 0 0)
(0.000228865 0 0)
(0.000314521 0 0)
(0.000430164 0 0)
(0.000585487 0 0)
(0.000793021 0 0)
(0.00106887 0 0)
(0.00143357 0 0)
(0.00191318 0 0)
(0.0025405 0 0)
(0.00335658 0 0)
(0.0044124 0 0)
(0.00577082 0 0)
(0.00750884 0 0)
(0.00972003 0 0)
(0.0125172 0 0)
(0.0160355 0 0)
(0.0204353 0 0)
(0.0259055 0 0)
(0.0326666 0 0)
(0.0409742 0 0)
(0.0511213 0 0)
(0.0634416 0 0)
(0.0783106 0 0)
(0.0961478 0 0)
(0.117417 0 0)
(0.142624 0 0)
(0.172319 0 0)
(0.207088 0 0)
(0.247553 0 0)
(0.294364 0 0)
(0.348191 0 0)
(0.40972 0 0)
(0.479637 0 0)
(0.558623 0 0)
(0.64734 0 0)
(0.746422 0 0)
(0.856462 0 0)
(0.978002 0 0)
(1.11153 0 0)
(1.25744 0 0)
(1.41609 0 0)
(1.58773 0 0)
(1.77252 0 0)
(1.97055 0 0)
(2.1818 0 0)
(2.40618 0 0)
(2.64351 0 0)
(2.89354 0 0)
(3.15593 0 0)
(3.43029 0 0)
(3.71616 0 0)
(4.01305 0 0)
(4.3204 0 0)
(4.63764 0 0)
(4.96419 0 0)
(5.29941 0 0)
(5.64269 0 0)
(5.99342 0 0)
(6.35099 0 0)
(6.71479 0 0)
(7.08425 0 0)
(7.4588 0 0)
(7.83793 0 0)
(8.22113 0 0)
(8.60792 0 0)
(8.99787 0 0)
(9.39059 0 0)
(9.78568 0 0)
(10.1828 0 0)
(10.5817 0 0)
(10.9821 0 0)
(11.3837 0 0)
(11.7863 0 0)
(12.1897 0 0)
(12.5937 0 0)
(12.9983 0 0)
(13.4033 0 0)
(13.8085 0 0)
(14.214 0 0)
(14.6196 0 0)
(15.0253 0 0)
(15.431 0 0)
(15.8367 0 0)
(16.2423 0 0)
(16.648 0 0)
(17.0535 0 0)
(17.459 0 0)
(17.8644 0 0)
(18.2697 0 0)
(18.675 0 0)
(19.0802 0 0)
(19.4853 0 0)
(19.8904 0 0)
(20.2955 0 0)
(20.7006 0 0)
(21.1056 0 0)
(21.5107 0 0)
(21.9158 0 0)
(22.321 0 0)
(22.7262 0 0)
(23.1315 0 0)
(23.5369 0 0)
(23.9424 0 0)
(24.348 0 0)
(24.7538 0 0)
(25.1597 0 0)
(25.5658 0 0)
(25.9721 0 0)
(26.3787 0 0)
(26.7854 0 0)
(27.1924 0 0)
(27.5996 0 0)
(28.0071 0 0)
(28.4149 0 0)
(28.8229 0 0)
(29.2313 0 0)
(29.64 0 0)
(30.049 0 0)
(30.4584 0 0)
(30.8681 0 0)
(31.2782 0 0)
(31.6886 0 0)
(32.0995 0 0)
(32.5107 0 0)
(32.9223 0 0)
(33.3343 0 0)
(33.7468 0 0)
(34.1597 0 0)
(34.5729 0 0)
(34.9867 0 0)
(35.4008 0 0)
(35.8154 0 0)
(36.2305 0 0)
(36.646 0 0)
(37.062 0 0)
(37.4785 0 0)
(37.8954 0 0)
(38.3128 0 0)
(38.7306 0 0)
(39.149 0 0)
(39.5678 0 0)
(39.9872 0 0)
(40.407 0 0)
(40.8274 0 0)
(41.2483 0 0)
(41.6697 0 0)
(42.0916 0 0)
(42.5141 0 0)
(42.9371 0 0)
(43.3607 0 0)
(43.7848 0 0)
(44.2095 0 0)
(44.6348 0 0)
(45.0608 0 0)
(45.4873 0 0)
(45.9144 0 0)
(46.3422 0 0)
(46.7706 0 0)
(47.1997 0 0)
(47.6295 0 0)
(48.06 0 0)
(48.4911 0 0)
(48.923 0 0)
(49.3556 0 0)
(49.7889 0 0)
(50.223 0 0)
(50.6579 0 0)
(51.0936 0 0)
(51.5301 0 0)
(51.9674 0 0)
(52.4055 0 0)
(52.8444 0 0)
(53.2843 0 0)
(53.725 0 0)
(54.1665 0 0)
(54.609 0 0)
(55.0524 0 0)
(55.4968 0 0)
(55.9421 0 0)
(56.3883 0 0)
(56.8355 0 0)
(57.2837 0 0)
(57.7329 0 0)
(58.1832 0 0)
(58.6344 0 0)
(59.0867 0 0)
(59.5401 0 0)
(59.9946 0 0)
(60.4501 0 0)
(60.9068 0 0)
(61.3646 0 0)
(61.8235 0 0)
(62.2836 0 0)
(62.7449 0 0)
(63.2074 0 0)
(63.6711 0 0)
(64.1361 0 0)
(64.6023 0 0)
(65.0698 0 0)
(65.5386 0 0)
(66.0087 0 0)
(66.4802 0 0)
(66.9531 0 0)
(67.4273 0 0)
(67.903 0 0)
(68.3801 0 0)
(68.8588 0 0)
(69.3387 0 0)
(69.8206 0 0)
(70.3033 0 0)
(70.7888 0 0)
(71.2741 0 0)
(71.7636 0 0)
(72.2511 0 0)
(72.7455 0 0)
(73.2345 0 0)
(73.7348 0 0)
(74.2246 0 0)
(74.7315 0 0)
(75.2218 0 0)
(75.7357 0 0)
(76.227 0 0)
(76.7471 0 0)
(77.2406 0 0)
(77.7657 0 0)
(78.2632 0 0)
(78.7921 0 0)
(79.2948 0 0)
(79.8273 0 0)
(80.335 0 0)
(80.8719 0 0)
(81.3842 0 0)
(81.9259 0 0)
(82.4431 0 0)
(82.9894 0 0)
(83.5126 0 0)
(84.0626 0 0)
(84.5929 0 0)
(85.1463 0 0)
(85.6848 0 0)
(86.2407 0 0)
(86.7897 0 0)
(87.345 0 0)
(87.9096 0 0)
(88.4581 0 0)
(89.0459 0 0)
(89.5798 0 0)
(90.2003 0 0)
(90.7099 0 0)
(91.374 0 0)
(91.8501 0 0)
(92.5659 0 0)
(93.005 0 0)
(93.7716 0 0)
(94.1819 0 0)
(94.9834 0 0)
(95.3879 0 0)
(96.2022 0 0)
(96.6162 0 0)
(97.4413 0 0)
(97.8632 0 0)
(98.6989 0 0)
(99.134 0 0)
(99.9752 0 0)
(100.426 0 0)
(101.277 0 0)
(101.737 0 0)
(102.603 0 0)
(103.074 0 0)
(103.949 0 0)
(104.435 0 0)
(105.317 0 0)
(105.813 0 0)
(106.702 0 0)
(107.199 0 0)
(108.084 0 0)
(108.57 0 0)
(109.432 0 0)
(109.875 0 0)
(110.687 0 0)
(111.088 0 0)
(111.869 0 0)
(112.256 0 0)
(113.032 0 0)
(113.425 0 0)
(114.213 0 0)
(114.613 0 0)
(115.414 0 0)
(115.816 0 0)
(116.622 0 0)
(117.024 0 0)
(117.828 0 0)
(118.228 0 0)
(119.028 0 0)
(119.428 0 0)
(120.223 0 0)
(120.629 0 0)
(121.412 0 0)
(121.832 0 0)
(122.6 0 0)
(123.033 0 0)
(123.789 0 0)
(124.229 0 0)
(124.974 0 0)
(125.42 0 0)
(126.153 0 0)
(126.608 0 0)
(127.326 0 0)
(127.79 0 0)
(128.494 0 0)
(128.965 0 0)
(129.656 0 0)
(130.134 0 0)
(130.81 0 0)
(131.295 0 0)
(131.955 0 0)
(132.446 0 0)
(133.09 0 0)
(133.587 0 0)
(134.214 0 0)
(134.717 0 0)
(135.326 0 0)
(135.833 0 0)
(136.425 0 0)
(136.936 0 0)
(137.509 0 0)
(138.022 0 0)
(138.576 0 0)
(139.09 0 0)
(139.626 0 0)
(140.137 0 0)
(140.656 0 0)
(141.16 0 0)
(141.665 0 0)
(142.158 0 0)
(142.651 0 0)
(143.129 0 0)
(143.611 0 0)
(144.07 0 0)
(144.538 0 0)
(144.976 0 0)
(145.427 0 0)
(145.848 0 0)
(146.282 0 0)
(146.688 0 0)
(147.096 0 0)
(147.479 0 0)
(147.849 0 0)
(148.197 0 0)
(148.529 0 0)
(148.843 0 0)
(149.145 0 0)
(149.429 0 0)
(149.699 0 0)
(149.945 0 0)
(150.166 0 0)
(150.356 0 0)
(150.508 0 0)
(150.623 0 0)
(150.703 0 0)
(150.723 0 0)
(150.75 0 0)
(150.717 0 0)
(150.617 0 0)
(150.382 0 0)
(150.155 0 0)
(149.723 0 0)
(149.379 0 0)
(148.825 0 0)
(148.399 0 0)
(147.747 0 0)
(147.275 0 0)
(146.609 0 0)
(146.189 0 0)
(145.61 0 0)
(146.509 0 0)
)
;

boundaryField
{
    sideLeft
    {
        type            symmetryPlane;
    }
    sideRight
    {
        type            myWaveTransmissive;
        phi             phi.air;
        rho             rho.air;
        psi             thermo:psi.air;
        gamma           1.4;
        fieldInf        (0 0 0);
        lInf            10;
        value           uniform (146.076 0 0);
    }
    topbottom
    {
        type            empty;
    }
    frontback
    {
        type            empty;
    }
}


// ************************************************************************* //
