/*--------------------------------*- C++ -*----------------------------------*\
| =========                 |                                                 |
| \\      /  F ield         | OpenFOAM: The Open Source CFD Toolbox           |
|  \\    /   O peration     | Version:  2.4.0                                 |
|   \\  /    A nd           | Web:      www.OpenFOAM.org                      |
|    \\/     M anipulation  |                                                 |
\*---------------------------------------------------------------------------*/
FoamFile
{
    version     2.0;
    format      ascii;
    class       volVectorField;
    location    "0.11";
    object      U.waterMean;
}
// * * * * * * * * * * * * * * * * * * * * * * * * * * * * * * * * * * * * * //

dimensions      [0 1 -1 0 0 0 0];

internalField   nonuniform List<vector> 
1000
(
(-7.1803e-14 0 0)
(-3.05923e-14 0 0)
(-6.48465e-14 0 0)
(-3.38673e-14 0 0)
(-7.79074e-14 0 0)
(-2.4934e-14 0 0)
(-6.49175e-14 0 0)
(-4.92924e-14 0 0)
(-4.91501e-14 0 0)
(-3.57533e-14 0 0)
(-5.85487e-14 0 0)
(-7.31857e-14 0 0)
(-3.97648e-14 0 0)
(-8.58461e-14 0 0)
(-1.79318e-14 0 0)
(-7.12672e-14 0 0)
(-3.85006e-15 0 0)
(-4.07721e-14 0 0)
(1.95692e-15 0 0)
(-7.50781e-14 0 0)
(4.51474e-15 0 0)
(-7.39091e-14 0 0)
(-3.57017e-14 0 0)
(-7.48912e-14 0 0)
(-9.30487e-14 0 0)
(-8.73968e-14 0 0)
(-9.29777e-14 0 0)
(-7.36641e-14 0 0)
(-1.27077e-13 0 0)
(-4.26653e-14 0 0)
(-9.73894e-14 0 0)
(-8.33854e-14 0 0)
(-5.68112e-14 0 0)
(-6.26633e-14 0 0)
(-1.44114e-14 0 0)
(-9.60196e-14 0 0)
(3.81361e-14 0 0)
(-6.28761e-14 0 0)
(1.45787e-14 0 0)
(-5.50538e-14 0 0)
(2.13159e-14 0 0)
(-4.34268e-14 0 0)
(4.66363e-15 0 0)
(-2.49657e-14 0 0)
(1.98563e-14 0 0)
(-3.99842e-15 0 0)
(-2.41583e-15 0 0)
(4.48287e-15 0 0)
(-6.22043e-15 0 0)
(1.08001e-14 0 0)
(-2.25175e-14 0 0)
(3.16706e-14 0 0)
(-3.16285e-16 0 0)
(5.47826e-14 0 0)
(2.09677e-14 0 0)
(5.01125e-14 0 0)
(2.11289e-14 0 0)
(3.13801e-14 0 0)
(3.86287e-15 0 0)
(2.5715e-14 0 0)
(-1.52118e-14 0 0)
(5.97241e-14 0 0)
(1.65299e-14 0 0)
(-1.61408e-16 0 0)
(3.28335e-14 0 0)
(1.97273e-14 0 0)
(5.23927e-14 0 0)
(3.689e-14 0 0)
(1.73503e-14 0 0)
(3.169e-14 0 0)
(-5.39345e-15 0 0)
(1.09357e-14 0 0)
(-2.92482e-14 0 0)
(9.99908e-15 0 0)
(-1.37264e-14 0 0)
(-3.83949e-14 0 0)
(-1.28611e-14 0 0)
(-5.86712e-14 0 0)
(-5.01449e-14 0 0)
(-2.90031e-14 0 0)
(-3.68062e-14 0 0)
(-2.37709e-14 0 0)
(-1.97788e-14 0 0)
(5.67773e-15 0 0)
(-5.08617e-14 0 0)
(-1.70145e-14 0 0)
(-6.14488e-14 0 0)
(-2.33642e-14 0 0)
(-5.91171e-14 0 0)
(-7.72875e-14 0 0)
(-4.48677e-14 0 0)
(-5.73925e-14 0 0)
(-7.23008e-14 0 0)
(-5.66626e-14 0 0)
(-8.63437e-14 0 0)
(-3.11351e-14 0 0)
(-1.16554e-13 0 0)
(-2.94815e-14 0 0)
(-1.12608e-13 0 0)
(-8.63375e-14 0 0)
(-1.15463e-13 0 0)
(-1.03177e-13 0 0)
(-1.268e-13 0 0)
(-1.17072e-13 0 0)
(-1.21651e-13 0 0)
(-1.48103e-13 0 0)
(-1.09863e-13 0 0)
(-1.38091e-13 0 0)
(-1.72862e-13 0 0)
(-1.4185e-13 0 0)
(-1.84528e-13 0 0)
(-1.40804e-13 0 0)
(-1.83972e-13 0 0)
(-1.59982e-13 0 0)
(-1.88242e-13 0 0)
(-1.68521e-13 0 0)
(-1.57191e-13 0 0)
(-1.26102e-13 0 0)
(-1.23189e-13 0 0)
(-1.56623e-13 0 0)
(-1.03571e-13 0 0)
(-1.33143e-13 0 0)
(-8.5065e-14 0 0)
(-1.17537e-13 0 0)
(-9.24869e-14 0 0)
(-1.40578e-13 0 0)
(-1.02835e-13 0 0)
(-1.48051e-13 0 0)
(-8.64928e-14 0 0)
(-1.74825e-13 0 0)
(-9.95152e-14 0 0)
(-1.93874e-13 0 0)
(-1.44363e-13 0 0)
(-1.65505e-13 0 0)
(-1.23111e-13 0 0)
(-1.51862e-13 0 0)
(-1.41301e-13 0 0)
(-1.31463e-13 0 0)
(-1.04702e-13 0 0)
(-1.15857e-13 0 0)
(-1.21722e-13 0 0)
(-1.03726e-13 0 0)
(-1.53096e-13 0 0)
(-1.05283e-13 0 0)
(-1.6066e-13 0 0)
(-9.95149e-14 0 0)
(-1.25979e-13 0 0)
(-1.37574e-13 0 0)
(-1.12699e-13 0 0)
(-1.36217e-13 0 0)
(-1.30837e-13 0 0)
(-1.55228e-13 0 0)
(-1.51107e-13 0 0)
(-1.46062e-13 0 0)
(-1.30236e-13 0 0)
(-1.28163e-13 0 0)
(-1.43123e-13 0 0)
(-1.26793e-13 0 0)
(-1.49324e-13 0 0)
(-1.17375e-13 0 0)
(-1.57546e-13 0 0)
(-8.13639e-14 0 0)
(-1.22129e-13 0 0)
(-7.05636e-14 0 0)
(-1.04902e-13 0 0)
(-4.802e-14 0 0)
(-1.18163e-13 0 0)
(-5.78966e-14 0 0)
(-1.20883e-13 0 0)
(-1.14759e-13 0 0)
(-1.15935e-13 0 0)
(-1.03681e-13 0 0)
(-1.42328e-13 0 0)
(-1.00387e-13 0 0)
(-1.55473e-13 0 0)
(-1.18629e-13 0 0)
(-1.74503e-13 0 0)
(-1.35636e-13 0 0)
(-1.9598e-13 0 0)
(-1.84935e-13 0 0)
(-1.75937e-13 0 0)
(-1.66777e-13 0 0)
(-1.3977e-13 0 0)
(-1.99488e-13 0 0)
(-1.26929e-13 0 0)
(-1.9016e-13 0 0)
(-1.19617e-13 0 0)
(-2.27483e-13 0 0)
(-8.53949e-14 0 0)
(-1.9246e-13 0 0)
(-8.46131e-14 0 0)
(-1.75775e-13 0 0)
(-9.57039e-14 0 0)
(-1.61151e-13 0 0)
(-1.3718e-13 0 0)
(-1.60421e-13 0 0)
(-1.53484e-13 0 0)
(-1.48646e-13 0 0)
(-1.39228e-13 0 0)
(-1.6294e-13 0 0)
(-1.26935e-13 0 0)
(-1.94721e-13 0 0)
(-1.17912e-13 0 0)
(-1.7168e-13 0 0)
(-1.48458e-13 0 0)
(-1.43723e-13 0 0)
(-1.13551e-13 0 0)
(-1.32464e-13 0 0)
(-1.39867e-13 0 0)
(-1.12162e-13 0 0)
(-1.04514e-13 0 0)
(-7.96196e-14 0 0)
(-1.06387e-13 0 0)
(-4.15088e-14 0 0)
(-8.26165e-14 0 0)
(-2.63161e-14 0 0)
(-5.19018e-14 0 0)
(-3.78074e-14 0 0)
(-1.96303e-14 0 0)
(-4.16647e-15 0 0)
(3.93379e-15 0 0)
(-1.43658e-14 0 0)
(2.21552e-15 0 0)
(-1.10716e-14 0 0)
(-3.37441e-14 0 0)
(-6.85367e-15 0 0)
(-1.75709e-15 0 0)
(-3.92023e-14 0 0)
(2.05384e-15 0 0)
(-3.89376e-14 0 0)
(-5.01514e-14 0 0)
(-5.27998e-14 0 0)
(-7.33085e-14 0 0)
(-2.42039e-14 0 0)
(-6.70233e-14 0 0)
(3.91418e-15 0 0)
(-6.13067e-14 0 0)
(-6.17548e-15 0 0)
(-7.35927e-14 0 0)
(-5.67141e-14 0 0)
(-4.91955e-14 0 0)
(-2.5696e-14 0 0)
(-7.47422e-14 0 0)
(2.00563e-14 0 0)
(-2.51724e-14 0 0)
(-5.0515e-15 0 0)
(-2.31958e-14 0 0)
(5.17394e-15 0 0)
(-3.97893e-15 0 0)
(2.60445e-14 0 0)
(2.62514e-14 0 0)
(4.79938e-14 0 0)
(3.28012e-14 0 0)
(-1.21113e-14 0 0)
(3.48938e-14 0 0)
(-1.4385e-14 0 0)
(4.56554e-14 0 0)
(-1.55007e-15 0 0)
(4.14954e-14 0 0)
(-1.88612e-14 0 0)
(5.82125e-14 0 0)
(4.13438e-15 0 0)
(4.92921e-14 0 0)
(3.33955e-14 0 0)
(8.25534e-15 0 0)
(4.0223e-14 0 0)
(-2.70648e-14 0 0)
(7.83208e-14 0 0)
(1.95919e-14 0 0)
(9.74087e-14 0 0)
(2.77566e-14 0 0)
(8.91794e-14 0 0)
(2.79116e-14 0 0)
(7.0531e-14 0 0)
(3.85632e-14 0 0)
(8.70607e-14 0 0)
(3.04697e-14 0 0)
(1.10269e-13 0 0)
(5.84069e-14 0 0)
(1.13532e-13 0 0)
(1.10787e-13 0 0)
(1.27684e-13 0 0)
(1.37735e-13 0 0)
(6.41884e-14 0 0)
(1.56913e-13 0 0)
(1.11626e-13 0 0)
(1.23783e-13 0 0)
(1.33925e-13 0 0)
(1.36024e-13 0 0)
(1.09824e-13 0 0)
(1.24894e-13 0 0)
(1.14927e-13 0 0)
(1.3384e-13 0 0)
(8.13445e-14 0 0)
(1.5296e-13 0 0)
(1.07977e-13 0 0)
(1.26709e-13 0 0)
(1.43504e-13 0 0)
(1.61151e-13 0 0)
(1.16917e-13 0 0)
(1.8195e-13 0 0)
(1.5475e-13 0 0)
(1.5849e-13 0 0)
(1.71622e-13 0 0)
(1.31522e-13 0 0)
(1.90128e-13 0 0)
(1.52089e-13 0 0)
(1.48303e-13 0 0)
(1.31715e-13 0 0)
(1.10044e-13 0 0)
(1.31386e-13 0 0)
(1.05684e-13 0 0)
(1.27426e-13 0 0)
(9.60139e-14 0 0)
(1.36431e-13 0 0)
(1.08842e-13 0 0)
(1.36127e-13 0 0)
(1.07163e-13 0 0)
(9.686e-14 0 0)
(1.38478e-13 0 0)
(1.191e-13 0 0)
(1.07641e-13 0 0)
(1.34015e-13 0 0)
(9.95602e-14 0 0)
(1.52321e-13 0 0)
(9.57167e-14 0 0)
(8.67703e-14 0 0)
(9.47023e-14 0 0)
(8.13378e-14 0 0)
(8.33791e-14 0 0)
(1.08138e-13 0 0)
(1.16555e-13 0 0)
(8.22101e-14 0 0)
(1.43213e-13 0 0)
(8.25331e-14 0 0)
(1.41049e-13 0 0)
(8.42382e-14 0 0)
(8.33791e-14 0 0)
(1.00361e-13 0 0)
(1.00096e-13 0 0)
(1.19558e-13 0 0)
(9.59168e-14 0 0)
(1.09126e-13 0 0)
(6.19273e-14 0 0)
(1.05231e-13 0 0)
(2.84092e-14 0 0)
(1.07156e-13 0 0)
(5.28454e-14 0 0)
(6.49627e-14 0 0)
(4.32399e-14 0 0)
(5.75797e-14 0 0)
(5.50025e-14 0 0)
(6.62936e-14 0 0)
(2.8648e-14 0 0)
(9.17374e-14 0 0)
(6.12035e-14 0 0)
(4.59853e-14 0 0)
(7.48845e-14 0 0)
(7.35542e-14 0 0)
(8.61694e-14 0 0)
(7.0376e-14 0 0)
(5.778e-14 0 0)
(3.26076e-14 0 0)
(5.81676e-14 0 0)
(6.84575e-14 0 0)
(8.77777e-14 0 0)
(2.45205e-14 0 0)
(6.86382e-14 0 0)
(3.22847e-14 0 0)
(5.60166e-14 0 0)
(4.67667e-14 0 0)
(7.2346e-14 0 0)
(4.96671e-14 0 0)
(8.11632e-14 0 0)
(5.51642e-14 0 0)
(1.13202e-13 0 0)
(8.93024e-14 0 0)
(1.38362e-13 0 0)
(7.6571e-14 0 0)
(1.52824e-13 0 0)
(9.12728e-14 0 0)
(1.39208e-13 0 0)
(1.10573e-13 0 0)
(1.00128e-13 0 0)
(9.84357e-14 0 0)
(2.43205e-14 0 0)
(1.29338e-13 0 0)
(4.574e-14 0 0)
(1.10043e-13 0 0)
(3.26272e-14 0 0)
(7.32697e-14 0 0)
(7.13579e-14 0 0)
(1.00096e-13 0 0)
(3.88283e-14 0 0)
(1.1213e-13 0 0)
(4.41508e-14 0 0)
(9.48121e-14 0 0)
(6.94009e-14 0 0)
(1.28918e-13 0 0)
(9.79322e-14 0 0)
(1.17763e-13 0 0)
(1.17246e-13 0 0)
(8.61504e-14 0 0)
(1.35584e-13 0 0)
(1.14385e-13 0 0)
(1.14217e-13 0 0)
(1.23944e-13 0 0)
(1.30804e-13 0 0)
(7.96133e-14 0 0)
(1.32458e-13 0 0)
(8.88955e-14 0 0)
(1.4225e-13 0 0)
(8.7778e-14 0 0)
(1.09042e-13 0 0)
(7.90511e-14 0 0)
(1.11038e-13 0 0)
(7.10801e-14 0 0)
(1.06814e-13 0 0)
(1.01743e-14 0 0)
(1.35797e-13 0 0)
(5.27484e-14 0 0)
(8.59368e-14 0 0)
(6.26314e-14 0 0)
(1.0204e-13 0 0)
(7.0867e-14 0 0)
(6.50793e-14 0 0)
(8.62081e-14 0 0)
(4.33432e-14 0 0)
(6.90581e-14 0 0)
(2.72786e-14 0 0)
(8.08724e-14 0 0)
(5.35944e-14 0 0)
(5.60232e-14 0 0)
(9.51609e-14 0 0)
(9.44375e-14 0 0)
(7.21202e-14 0 0)
(7.98972e-14 0 0)
(2.25503e-14 0 0)
(7.0014e-14 0 0)
(-2.96451e-15 0 0)
(8.36369e-14 0 0)
(2.1478e-14 0 0)
(5.67982e-14 0 0)
(4.85559e-14 0 0)
(5.52286e-14 0 0)
(5.89103e-14 0 0)
(4.02815e-14 0 0)
(7.39931e-14 0 0)
(4.71155e-14 0 0)
(5.07069e-14 0 0)
(4.1218e-14 0 0)
(2.20205e-14 0 0)
(7.2417e-14 0 0)
(6.13069e-14 0 0)
(3.83114e-14 0 0)
(6.70169e-14 0 0)
(5.36783e-14 0 0)
(1.34617e-14 0 0)
(6.06026e-14 0 0)
(-2.73878e-14 0 0)
(8.7351e-14 0 0)
(-1.28475e-14 0 0)
(5.5267e-14 0 0)
(-3.42737e-14 0 0)
(2.62381e-14 0 0)
(-4.33881e-14 0 0)
(-1.16207e-14 0 0)
(-3.71353e-14 0 0)
(7.53152e-15 0 0)
(-1.65232e-14 0 0)
(-2.32348e-14 0 0)
(-3.48149e-15 0 0)
(1.93008e-14 0 0)
(1.78216e-14 0 0)
(1.81019e-16 0 0)
(-4.92228e-15 0 0)
(-1.88356e-14 0 0)
(1.75695e-14 0 0)
(-5.00607e-14 0 0)
(2.37643e-14 0 0)
(8.26872e-16 0 0)
(2.43973e-14 0 0)
(-3.29947e-14 0 0)
(4.05653e-14 0 0)
(-1.04772e-14 0 0)
(1.37591e-15 0 0)
(-2.46753e-14 0 0)
(-8.30045e-15 0 0)
(-5.66042e-14 0 0)
(1.57351e-14 0 0)
(-2.62901e-14 0 0)
(-3.19098e-14 0 0)
(-2.20786e-14 0 0)
(-2.37837e-14 0 0)
(-1.05933e-15 0 0)
(1.06322e-14 0 0)
(1.96497e-14 0 0)
(-6.76939e-15 0 0)
(3.04629e-14 0 0)
(4.43123e-15 0 0)
(5.23604e-14 0 0)
(1.97789e-14 0 0)
(4.84559e-16 0 0)
(1.80994e-14 0 0)
(-8.41656e-15 0 0)
(2.5308e-14 0 0)
(-3.39636e-14 0 0)
(2.7194e-14 0 0)
(-5.5086e-14 0 0)
(4.59588e-14 0 0)
(-3.31433e-14 0 0)
(2.61737e-14 0 0)
(-9.28868e-15 0 0)
(5.6714e-15 0 0)
(-7.67377e-15 0 0)
(2.78273e-14 0 0)
(8.09386e-15 0 0)
(3.98614e-14 0 0)
(5.25413e-14 0 0)
(7.69985e-15 0 0)
(5.0991e-14 0 0)
(-2.39644e-14 0 0)
(7.06471e-14 0 0)
(-1.4015e-15 0 0)
(7.20037e-14 0 0)
(1.93979e-14 0 0)
(4.07915e-14 0 0)
(2.50114e-14 0 0)
(6.46397e-14 0 0)
(6.34994e-15 0 0)
(2.23173e-14 0 0)
(-1.45323e-15 0 0)
(8.97858e-15 0 0)
(9.56666e-15 0 0)
(3.98484e-14 0 0)
(2.83314e-14 0 0)
(3.22973e-14 0 0)
(2.78855e-14 0 0)
(-2.10564e-15 0 0)
(1.22599e-14 0 0)
(-6.07824e-15 0 0)
(-4.61217e-15 0 0)
(-4.12744e-15 0 0)
(-3.50762e-15 0 0)
(1.9508e-15 0 0)
(-3.66704e-14 0 0)
(1.42623e-14 0 0)
(-3.68448e-14 0 0)
(-1.08842e-14 0 0)
(-3.36474e-14 0 0)
(1.24656e-15 0 0)
(-2.48624e-14 0 0)
(-1.06775e-14 0 0)
(-1.45337e-14 0 0)
(1.09667e-16 0 0)
(-1.02057e-15 0 0)
(-1.18725e-14 0 0)
(1.70466e-14 0 0)
(2.03149e-14 0 0)
(2.92162e-14 0 0)
(7.35108e-15 0 0)
(4.86462e-14 0 0)
(2.03217e-14 0 0)
(2.90675e-14 0 0)
(5.14815e-15 0 0)
(-4.27291e-14 0 0)
(3.84917e-14 0 0)
(-1.55607e-14 0 0)
(1.3849e-14 0 0)
(-1.54832e-14 0 0)
(3.84595e-14 0 0)
(-1.27884e-15 0 0)
(-9.22421e-15 0 0)
(-3.11087e-14 0 0)
(-1.98307e-14 0 0)
(-3.1225e-14 0 0)
(-1.30999e-14 0 0)
(-8.26179e-15 0 0)
(-5.09521e-14 0 0)
(-6.65991e-15 0 0)
(-3.24782e-14 0 0)
(2.65936e-14 0 0)
(1.13689e-14 0 0)
(8.08466e-14 0 0)
(5.93693e-14 0 0)
(2.00683e-13 0 0)
(2.61745e-13 0 0)
(5.12088e-13 0 0)
(7.47246e-13 0 0)
(1.2777e-12 0 0)
(1.97796e-12 0 0)
(3.29866e-12 0 0)
(5.17448e-12 0 0)
(8.32416e-12 0 0)
(1.31356e-11 0 0)
(2.07856e-11 0 0)
(3.26971e-11 0 0)
(5.12649e-11 0 0)
(7.9963e-11 0 0)
(1.2427e-10 0 0)
(1.92493e-10 0 0)
(2.96849e-10 0 0)
(4.56043e-10 0 0)
(6.97854e-10 0 0)
(1.06363e-09 0 0)
(1.61456e-09 0 0)
(2.44111e-09 0 0)
(3.6757e-09 0 0)
(5.51221e-09 0 0)
(8.23236e-09 0 0)
(1.22441e-08 0 0)
(1.81351e-08 0 0)
(2.67482e-08 0 0)
(3.92863e-08 0 0)
(5.74577e-08 0 0)
(8.36767e-08 0 0)
(1.21339e-07 0 0)
(1.75195e-07 0 0)
(2.5186e-07 0 0)
(3.60497e-07 0 0)
(5.13736e-07 0 0)
(7.28887e-07 0 0)
(1.02956e-06 0 0)
(1.4478e-06 0 0)
(2.0268e-06 0 0)
(2.82459e-06 0 0)
(3.91856e-06 0 0)
(5.41147e-06 0 0)
(7.43893e-06 0 0)
(1.01789e-05 0 0)
(1.38637e-05 0 0)
(1.87945e-05 0 0)
(2.53598e-05 0 0)
(3.40578e-05 0 0)
(4.55232e-05 0 0)
(6.05598e-05 0 0)
(8.01793e-05 0 0)
(0.000105647 0 0)
(0.000138536 0 0)
(0.000180788 0 0)
(0.000234786 0 0)
(0.000303432 0 0)
(0.000390241 0 0)
(0.000499439 0 0)
(0.000636071 0 0)
(0.00080612 0 0)
(0.00101663 0 0)
(0.00127584 0 0)
(0.0015933 0 0)
(0.00198004 0 0)
(0.00244865 0 0)
(0.00301344 0 0)
(0.00369055 0 0)
(0.00449802 0 0)
(0.00545589 0 0)
(0.00658625 0 0)
(0.00791327 0 0)
(0.00946319 0 0)
(0.0112643 0 0)
(0.0133469 0 0)
(0.0157431 0 0)
(0.0184867 0 0)
(0.0216134 0 0)
(0.02516 0 0)
(0.0291645 0 0)
(0.033666 0 0)
(0.0387042 0 0)
(0.0443193 0 0)
(0.0505516 0 0)
(0.0574415 0 0)
(0.0650288 0 0)
(0.0733531 0 0)
(0.0824528 0 0)
(0.0923656 0 0)
(0.103128 0 0)
(0.114775 0 0)
(0.127339 0 0)
(0.140854 0 0)
(0.155349 0 0)
(0.170853 0 0)
(0.187392 0 0)
(0.204991 0 0)
(0.223674 0 0)
(0.243461 0 0)
(0.264373 0 0)
(0.286427 0 0)
(0.309639 0 0)
(0.334025 0 0)
(0.359597 0 0)
(0.386368 0 0)
(0.414349 0 0)
(0.443548 0 0)
(0.473975 0 0)
(0.505637 0 0)
(0.538541 0 0)
(0.572693 0 0)
(0.608098 0 0)
(0.64476 0 0)
(0.682685 0 0)
(0.721874 0 0)
(0.762333 0 0)
(0.804063 0 0)
(0.847068 0 0)
(0.89135 0 0)
(0.93691 0 0)
(0.983752 0 0)
(1.03188 0 0)
(1.08129 0 0)
(1.13198 0 0)
(1.18397 0 0)
(1.23725 0 0)
(1.29181 0 0)
(1.34768 0 0)
(1.40484 0 0)
(1.46329 0 0)
(1.52305 0 0)
(1.58411 0 0)
(1.64647 0 0)
(1.71014 0 0)
(1.77511 0 0)
(1.8414 0 0)
(1.90899 0 0)
(1.97791 0 0)
(2.04813 0 0)
(2.11968 0 0)
(2.19255 0 0)
(2.26675 0 0)
(2.34227 0 0)
(2.41912 0 0)
(2.4973 0 0)
(2.57682 0 0)
(2.65768 0 0)
(2.73988 0 0)
(2.82343 0 0)
(2.90832 0 0)
(2.99456 0 0)
(3.08216 0 0)
(3.17111 0 0)
(3.26143 0 0)
(3.35311 0 0)
(3.44616 0 0)
(3.54058 0 0)
(3.63637 0 0)
(3.73355 0 0)
(3.8321 0 0)
(3.93205 0 0)
(4.03338 0 0)
(4.13611 0 0)
(4.24023 0 0)
(4.34576 0 0)
(4.4527 0 0)
(4.56104 0 0)
(4.67081 0 0)
(4.78199 0 0)
(4.89459 0 0)
(5.00862 0 0)
(5.12409 0 0)
(5.24099 0 0)
(5.35933 0 0)
(5.47912 0 0)
(5.60036 0 0)
(5.72305 0 0)
(5.8472 0 0)
(5.97282 0 0)
(6.09991 0 0)
(6.22847 0 0)
(6.35851 0 0)
(6.49003 0 0)
(6.62304 0 0)
(6.75755 0 0)
(6.89355 0 0)
(7.03106 0 0)
(7.17007 0 0)
(7.31061 0 0)
(7.45266 0 0)
(7.59623 0 0)
(7.74134 0 0)
(7.88798 0 0)
(8.03617 0 0)
(8.1859 0 0)
(8.33719 0 0)
(8.49003 0 0)
(8.64444 0 0)
(8.80042 0 0)
(8.95798 0 0)
(9.11713 0 0)
(9.27786 0 0)
(9.44019 0 0)
(9.60412 0 0)
(9.76966 0 0)
(9.93682 0 0)
(10.1056 0 0)
(10.276 0 0)
(10.4481 0 0)
(10.6218 0 0)
(10.7971 0 0)
(10.9741 0 0)
(11.1528 0 0)
(11.3331 0 0)
(11.5151 0 0)
(11.6989 0 0)
(11.8843 0 0)
(12.0714 0 0)
(12.2602 0 0)
(12.4508 0 0)
(12.643 0 0)
(12.8371 0 0)
(13.0328 0 0)
(13.2304 0 0)
(13.4296 0 0)
(13.6307 0 0)
(13.8335 0 0)
(14.0382 0 0)
(14.2446 0 0)
(14.4528 0 0)
(14.6629 0 0)
(14.8748 0 0)
(15.0885 0 0)
(15.3041 0 0)
(15.5216 0 0)
(15.7409 0 0)
(15.9621 0 0)
(16.1851 0 0)
(16.4101 0 0)
(16.637 0 0)
(16.8658 0 0)
(17.0966 0 0)
(17.3293 0 0)
(17.564 0 0)
(17.8006 0 0)
(18.0392 0 0)
(18.2799 0 0)
(18.5225 0 0)
(18.7671 0 0)
(19.0138 0 0)
(19.2625 0 0)
(19.5134 0 0)
(19.7662 0 0)
(20.0212 0 0)
(20.2782 0 0)
(20.5375 0 0)
(20.7986 0 0)
(21.0623 0 0)
(21.3277 0 0)
(21.5958 0 0)
(21.8654 0 0)
(22.1381 0 0)
(22.412 0 0)
(22.6894 0 0)
(22.9675 0 0)
(23.2496 0 0)
(23.5322 0 0)
(23.8191 0 0)
(24.1061 0 0)
(24.3979 0 0)
(24.6895 0 0)
(24.9862 0 0)
(25.2825 0 0)
(25.5842 0 0)
(25.8852 0 0)
(26.192 0 0)
(26.4978 0 0)
(26.8098 0 0)
(27.1206 0 0)
(27.4378 0 0)
(27.7537 0 0)
(28.0761 0 0)
(28.3973 0 0)
(28.725 0 0)
(29.0518 0 0)
(29.3846 0 0)
(29.7172 0 0)
(30.055 0 0)
(30.3941 0 0)
(30.7365 0 0)
(31.0826 0 0)
(31.4293 0 0)
(31.783 0 0)
(32.1337 0 0)
(32.4956 0 0)
(32.8501 0 0)
(33.2204 0 0)
(33.5788 0 0)
(33.9578 0 0)
(34.3203 0 0)
(34.7081 0 0)
(35.0748 0 0)
(35.4717 0 0)
(35.8428 0 0)
(36.2487 0 0)
(36.6246 0 0)
(37.0398 0 0)
(37.4204 0 0)
(37.8449 0 0)
(38.2305 0 0)
(38.6641 0 0)
(39.0542 0 0)
(39.4962 0 0)
(39.8897 0 0)
(40.3378 0 0)
(40.7309 0 0)
(41.1836 0 0)
(41.5684 0 0)
(42.0174 0 0)
(42.3977 0 0)
(42.8496 0 0)
(43.2319 0 0)
(43.6921 0 0)
(44.079 0 0)
(44.5493 0 0)
(44.9402 0 0)
(45.4195 0 0)
(45.8135 0 0)
(46.3006 0 0)
(46.6973 0 0)
(47.1917 0 0)
(47.5911 0 0)
(48.0931 0 0)
(48.4954 0 0)
(49.0052 0 0)
(49.4104 0 0)
(49.9281 0 0)
(50.3364 0 0)
(50.8617 0 0)
(51.273 0 0)
(51.8057 0 0)
(52.2203 0 0)
(52.7603 0 0)
(53.178 0 0)
(53.7253 0 0)
(54.1462 0 0)
(54.7007 0 0)
(55.125 0 0)
(55.6865 0 0)
(56.1141 0 0)
(56.6826 0 0)
(57.1135 0 0)
(57.6888 0 0)
(58.123 0 0)
(58.7051 0 0)
(59.1427 0 0)
(59.7313 0 0)
(60.1723 0 0)
(60.7674 0 0)
(61.2118 0 0)
(61.8131 0 0)
(62.2608 0 0)
(62.8683 0 0)
(63.3192 0 0)
(63.9327 0 0)
(64.3868 0 0)
(65.0061 0 0)
(65.4633 0 0)
(66.0882 0 0)
(66.5483 0 0)
(67.1786 0 0)
(67.6415 0 0)
(68.2771 0 0)
(68.7424 0 0)
(69.3831 0 0)
(69.8506 0 0)
(70.4961 0 0)
(70.9655 0 0)
(71.6156 0 0)
(72.0863 0 0)
(72.7409 0 0)
(73.2125 0 0)
(73.8711 0 0)
(74.3432 0 0)
(75.0056 0 0)
(75.4775 0 0)
(76.143 0 0)
(76.6141 0 0)
(77.282 0 0)
(77.7512 0 0)
(78.421 0 0)
(78.8875 0 0)
(79.5584 0 0)
(80.0211 0 0)
(80.6925 0 0)
(81.1501 0 0)
(81.8206 0 0)
(82.2715 0 0)
(82.9397 0 0)
(83.3818 0 0)
(84.0463 0 0)
(84.4781 0 0)
(85.1377 0 0)
(85.5559 0 0)
(86.2068 0 0)
(86.606 0 0)
(87.2452 0 0)
(87.6238 0 0)
(88.2504 0 0)
(88.6084 0 0)
(89.2256 0 0)
(89.5652 0 0)
(90.1846 0 0)
(90.5183 0 0)
(91.9553 0 0)
)
;

boundaryField
{
    sideLeft
    {
        type            symmetryPlane;
    }
    sideRight
    {
        type            calculated;
        value           uniform (91.9553 0 0);
    }
    topbottom
    {
        type            empty;
    }
    frontback
    {
        type            empty;
    }
}


// ************************************************************************* //
