/*--------------------------------*- C++ -*----------------------------------*\
| =========                 |                                                 |
| \\      /  F ield         | OpenFOAM: The Open Source CFD Toolbox           |
|  \\    /   O peration     | Version:  2.4.0                                 |
|   \\  /    A nd           | Web:      www.OpenFOAM.org                      |
|    \\/     M anipulation  |                                                 |
\*---------------------------------------------------------------------------*/
FoamFile
{
    version     2.0;
    format      ascii;
    class       volVectorField;
    location    "0.11";
    object      Ur;
}
// * * * * * * * * * * * * * * * * * * * * * * * * * * * * * * * * * * * * * //

dimensions      [0 1 -1 0 0 0 0];

internalField   nonuniform List<vector> 
1000
(
(-1.42109e-14 0 0)
(1.42109e-14 0 0)
(4.26326e-14 0 0)
(7.10543e-15 0 0)
(7.10543e-15 0 0)
(2.84217e-14 0 0)
(-1.63932e-21 0 0)
(-7.10543e-15 0 0)
(-1.42109e-14 0 0)
(-4.26326e-14 0 0)
(3.55271e-14 0 0)
(1.42109e-14 0 0)
(-3.55271e-14 0 0)
(2.84217e-14 0 0)
(4.9738e-14 0 0)
(-3.55271e-14 0 0)
(-1.32553e-21 0 0)
(4.9738e-14 0 0)
(-3.55271e-14 0 0)
(2.13163e-14 0 0)
(4.26326e-14 0 0)
(-2.13163e-14 0 0)
(-2.13163e-14 0 0)
(-4.26326e-14 0 0)
(2.75966e-21 0 0)
(2.84217e-14 0 0)
(7.10543e-15 0 0)
(2.13163e-14 0 0)
(7.10543e-14 0 0)
(-3.55271e-14 0 0)
(-8.52651e-14 0 0)
(-8.1356e-22 0 0)
(-7.10543e-15 0 0)
(4.26326e-14 0 0)
(-7.10543e-15 0 0)
(-2.84217e-14 0 0)
(-1.63999e-21 0 0)
(-1.42109e-14 0 0)
(-1.65419e-22 0 0)
(1.42109e-14 0 0)
(2.84217e-14 0 0)
(7.10543e-15 0 0)
(-2.13163e-14 0 0)
(-1.42109e-14 0 0)
(-3.55271e-14 0 0)
(7.10543e-15 0 0)
(4.9738e-14 0 0)
(7.10543e-15 0 0)
(-2.84217e-14 0 0)
(-6.39488e-14 0 0)
(2.13163e-14 0 0)
(1.06581e-13 0 0)
(-2.84217e-14 0 0)
(-8.52651e-14 0 0)
(-1.42109e-14 0 0)
(-2.3045e-21 0 0)
(3.55271e-14 0 0)
(-2.31419e-22 0 0)
(-1.42109e-14 0 0)
(-2.84217e-14 0 0)
(-1.42109e-14 0 0)
(6.39488e-14 0 0)
(2.13163e-14 0 0)
(1.07773e-21 0 0)
(-2.13163e-14 0 0)
(-7.10543e-15 0 0)
(2.84217e-14 0 0)
(1.42109e-14 0 0)
(-7.10543e-15 0 0)
(-4.26326e-14 0 0)
(-2.84217e-14 0 0)
(7.10543e-14 0 0)
(-2.17752e-21 0 0)
(-4.9738e-14 0 0)
(1.42109e-14 0 0)
(-5.68434e-14 0 0)
(3.49387e-22 0 0)
(-1.42109e-14 0 0)
(-2.13163e-14 0 0)
(4.9738e-14 0 0)
(3.55271e-14 0 0)
(2.84217e-14 0 0)
(2.84217e-14 0 0)
(7.10543e-15 0 0)
(-4.26326e-14 0 0)
(-2.84217e-14 0 0)
(2.84217e-14 0 0)
(7.10543e-15 0 0)
(2.13163e-14 0 0)
(-3.99011e-22 0 0)
(-7.81597e-14 0 0)
(1.76146e-21 0 0)
(7.10543e-14 0 0)
(5.68434e-14 0 0)
(-3.55271e-14 0 0)
(-5.68434e-14 0 0)
(9.38544e-22 0 0)
(3.55271e-14 0 0)
(-7.10543e-15 0 0)
(-6.39488e-14 0 0)
(7.10543e-15 0 0)
(2.13163e-14 0 0)
(1.42109e-14 0 0)
(2.13163e-14 0 0)
(-7.10543e-15 0 0)
(1.42109e-14 0 0)
(1.42109e-14 0 0)
(4.9738e-14 0 0)
(-2.84217e-14 0 0)
(-7.10543e-14 0 0)
(2.84217e-14 0 0)
(1.42109e-14 0 0)
(-7.10543e-15 0 0)
(1.29077e-21 0 0)
(1.42109e-14 0 0)
(2.84217e-14 0 0)
(-2.84217e-14 0 0)
(1.42109e-14 0 0)
(2.13163e-14 0 0)
(-6.39488e-14 0 0)
(-2.84217e-14 0 0)
(5.68434e-14 0 0)
(1.42109e-14 0 0)
(-1.42109e-14 0 0)
(-2.13163e-14 0 0)
(-2.84217e-14 0 0)
(1.42109e-14 0 0)
(2.13163e-14 0 0)
(3.55271e-14 0 0)
(-1.17013e-21 0 0)
(-1.65001e-21 0 0)
(-7.10543e-15 0 0)
(-7.10543e-15 0 0)
(7.10543e-15 0 0)
(-2.84217e-14 0 0)
(-2.84217e-14 0 0)
(-5.68434e-14 0 0)
(-2.13163e-14 0 0)
(7.10543e-15 0 0)
(1.48309e-21 0 0)
(3.55271e-14 0 0)
(5.68434e-14 0 0)
(2.13163e-14 0 0)
(-4.26326e-14 0 0)
(2.13163e-14 0 0)
(2.13163e-14 0 0)
(-4.26326e-14 0 0)
(-3.55271e-14 0 0)
(2.13163e-14 0 0)
(2.13163e-14 0 0)
(-2.13163e-14 0 0)
(-4.9738e-14 0 0)
(-1.42109e-14 0 0)
(4.9738e-14 0 0)
(-1.42109e-14 0 0)
(7.10543e-15 0 0)
(2.84217e-14 0 0)
(7.10543e-15 0 0)
(-2.13163e-14 0 0)
(-4.26326e-14 0 0)
(2.84217e-14 0 0)
(-7.10543e-15 0 0)
(4.9738e-14 0 0)
(2.84217e-14 0 0)
(-9.9476e-14 0 0)
(-3.55271e-14 0 0)
(1.42109e-14 0 0)
(2.13163e-14 0 0)
(7.10543e-15 0 0)
(-2.84217e-14 0 0)
(-2.13163e-14 0 0)
(1.42109e-14 0 0)
(4.26326e-14 0 0)
(-3.55271e-14 0 0)
(-4.26326e-14 0 0)
(2.84217e-14 0 0)
(-2.13163e-14 0 0)
(-3.55271e-14 0 0)
(4.9738e-14 0 0)
(8.52651e-14 0 0)
(-7.10543e-15 0 0)
(-2.13163e-14 0 0)
(2.13163e-14 0 0)
(-3.55271e-14 0 0)
(-6.39488e-14 0 0)
(-3.55271e-14 0 0)
(3.55271e-14 0 0)
(7.81597e-14 0 0)
(5.68434e-14 0 0)
(-2.13163e-14 0 0)
(-4.26326e-14 0 0)
(2.84217e-14 0 0)
(8.06544e-22 0 0)
(-2.84217e-14 0 0)
(-3.55271e-14 0 0)
(-4.26326e-14 0 0)
(2.13163e-14 0 0)
(2.13163e-14 0 0)
(-4.26326e-14 0 0)
(-1.23463e-21 0 0)
(-6.07706e-22 0 0)
(1.42109e-14 0 0)
(5.68434e-14 0 0)
(-2.13163e-14 0 0)
(-1.42109e-14 0 0)
(-7.10543e-14 0 0)
(-3.55271e-14 0 0)
(1.06581e-13 0 0)
(5.68434e-14 0 0)
(2.84217e-14 0 0)
(-7.10543e-15 0 0)
(-3.55271e-14 0 0)
(-1.42109e-14 0 0)
(-4.26326e-14 0 0)
(-2.1441e-21 0 0)
(2.84217e-14 0 0)
(-2.84217e-14 0 0)
(2.13163e-14 0 0)
(-3.55271e-14 0 0)
(-8.52651e-14 0 0)
(2.84217e-14 0 0)
(-7.10543e-15 0 0)
(-2.13163e-14 0 0)
(5.68434e-14 0 0)
(7.10543e-15 0 0)
(7.10543e-15 0 0)
(7.10543e-15 0 0)
(-5.68434e-14 0 0)
(-7.10543e-15 0 0)
(4.26326e-14 0 0)
(1.42109e-14 0 0)
(-4.26326e-14 0 0)
(2.13163e-14 0 0)
(4.9738e-14 0 0)
(-5.68434e-14 0 0)
(-3.55271e-14 0 0)
(7.10543e-14 0 0)
(7.10543e-15 0 0)
(-7.10543e-14 0 0)
(7.10543e-15 0 0)
(4.26326e-14 0 0)
(7.10543e-15 0 0)
(2.13163e-14 0 0)
(2.13163e-14 0 0)
(7.10543e-15 0 0)
(-7.10543e-15 0 0)
(-2.84217e-14 0 0)
(2.84217e-14 0 0)
(4.26326e-14 0 0)
(-3.55271e-14 0 0)
(-7.10543e-14 0 0)
(2.84217e-14 0 0)
(7.81597e-14 0 0)
(-7.10543e-15 0 0)
(1.42109e-14 0 0)
(-7.10543e-15 0 0)
(-7.81597e-14 0 0)
(-7.10543e-15 0 0)
(2.13163e-14 0 0)
(-7.10543e-15 0 0)
(-7.10543e-15 0 0)
(1.42109e-14 0 0)
(9.00949e-22 0 0)
(7.10543e-15 0 0)
(-7.10543e-15 0 0)
(1.42109e-14 0 0)
(9.23706e-14 0 0)
(-1.42109e-14 0 0)
(-9.9476e-14 0 0)
(2.13163e-14 0 0)
(4.26326e-14 0 0)
(4.9738e-14 0 0)
(-1.42109e-14 0 0)
(-7.10543e-14 0 0)
(1.42109e-14 0 0)
(4.9738e-14 0 0)
(1.62863e-21 0 0)
(-4.9738e-14 0 0)
(-1.42109e-14 0 0)
(-3.55271e-14 0 0)
(2.13163e-14 0 0)
(1.42109e-14 0 0)
(-7.10543e-15 0 0)
(2.13163e-14 0 0)
(-7.10543e-14 0 0)
(-3.55271e-14 0 0)
(7.81597e-14 0 0)
(4.26326e-14 0 0)
(-1.42109e-14 0 0)
(7.10543e-15 0 0)
(-5.87822e-22 0 0)
(-2.84217e-14 0 0)
(7.10543e-15 0 0)
(2.13163e-14 0 0)
(-4.26326e-14 0 0)
(-2.13163e-14 0 0)
(2.13163e-14 0 0)
(1.42109e-14 0 0)
(7.81597e-14 0 0)
(-8.52651e-14 0 0)
(-2.84217e-14 0 0)
(8.52651e-14 0 0)
(2.13163e-14 0 0)
(2.84217e-14 0 0)
(-5.68434e-14 0 0)
(-5.68434e-14 0 0)
(2.13163e-14 0 0)
(5.68434e-14 0 0)
(-4.9738e-14 0 0)
(-1.42109e-14 0 0)
(-3.55271e-14 0 0)
(-2.84217e-14 0 0)
(5.68434e-14 0 0)
(2.13163e-14 0 0)
(2.13163e-14 0 0)
(-1.42109e-14 0 0)
(2.13163e-14 0 0)
(4.9738e-14 0 0)
(-3.55271e-14 0 0)
(-5.68434e-14 0 0)
(7.10543e-15 0 0)
(1.42109e-14 0 0)
(2.13163e-14 0 0)
(1.42109e-14 0 0)
(-4.9738e-14 0 0)
(7.10543e-15 0 0)
(2.13163e-14 0 0)
(-3.55271e-14 0 0)
(1.1175e-21 0 0)
(2.84217e-14 0 0)
(1.42109e-14 0 0)
(-2.13163e-14 0 0)
(-2.84217e-14 0 0)
(2.13163e-14 0 0)
(2.13163e-14 0 0)
(-2.13163e-14 0 0)
(2.84217e-14 0 0)
(7.10543e-15 0 0)
(-4.26326e-14 0 0)
(9.65614e-22 0 0)
(3.55271e-14 0 0)
(2.13163e-14 0 0)
(7.10543e-15 0 0)
(2.71187e-22 0 0)
(-7.10543e-15 0 0)
(-3.55271e-14 0 0)
(-2.84217e-14 0 0)
(-7.10543e-15 0 0)
(3.55271e-14 0 0)
(2.84217e-14 0 0)
(-2.84217e-14 0 0)
(1.42109e-14 0 0)
(1.42109e-14 0 0)
(2.13163e-14 0 0)
(3.55271e-14 0 0)
(-7.10543e-15 0 0)
(-2.84217e-14 0 0)
(1.42109e-14 0 0)
(-7.10543e-15 0 0)
(1.25651e-22 0 0)
(2.84217e-14 0 0)
(4.26326e-14 0 0)
(-7.10543e-15 0 0)
(-3.55271e-14 0 0)
(-1.87074e-21 0 0)
(-1.42109e-14 0 0)
(-2.13163e-14 0 0)
(-1.42109e-14 0 0)
(3.55271e-14 0 0)
(-3.55271e-14 0 0)
(-2.84217e-14 0 0)
(4.9738e-14 0 0)
(5.68434e-14 0 0)
(-2.13163e-14 0 0)
(-2.84217e-14 0 0)
(2.13163e-14 0 0)
(7.10543e-15 0 0)
(-2.84217e-14 0 0)
(-1.42109e-14 0 0)
(1.42109e-14 0 0)
(-7.10543e-15 0 0)
(2.84217e-14 0 0)
(4.26326e-14 0 0)
(7.10543e-15 0 0)
(-2.84217e-14 0 0)
(-2.84217e-14 0 0)
(-5.68434e-14 0 0)
(-1.33405e-21 0 0)
(2.13163e-14 0 0)
(-1.42109e-14 0 0)
(3.55271e-14 0 0)
(-2.75047e-21 0 0)
(-7.10543e-15 0 0)
(2.84217e-14 0 0)
(-1.42109e-14 0 0)
(5.77965e-22 0 0)
(-7.10543e-15 0 0)
(-2.84217e-14 0 0)
(-2.13163e-14 0 0)
(2.84217e-14 0 0)
(2.13163e-14 0 0)
(2.84217e-14 0 0)
(1.42109e-14 0 0)
(-4.9738e-14 0 0)
(2.13163e-14 0 0)
(-5.4956e-22 0 0)
(-2.13163e-14 0 0)
(2.84217e-14 0 0)
(7.10543e-15 0 0)
(2.13163e-14 0 0)
(-5.68434e-14 0 0)
(-4.9738e-14 0 0)
(6.39488e-14 0 0)
(-1.42109e-14 0 0)
(-3.55271e-14 0 0)
(7.10543e-15 0 0)
(-1.42109e-14 0 0)
(1.42109e-14 0 0)
(2.13163e-14 0 0)
(-7.10543e-15 0 0)
(8.52651e-14 0 0)
(-1.42109e-14 0 0)
(-2.84217e-14 0 0)
(2.13163e-14 0 0)
(-4.26326e-14 0 0)
(2.84217e-14 0 0)
(-7.10543e-15 0 0)
(-3.55271e-14 0 0)
(7.10543e-15 0 0)
(4.26326e-14 0 0)
(-7.10543e-15 0 0)
(-4.9738e-14 0 0)
(7.10543e-15 0 0)
(2.84217e-14 0 0)
(-2.13163e-14 0 0)
(-4.26326e-14 0 0)
(6.39488e-14 0 0)
(4.9738e-14 0 0)
(-2.84217e-14 0 0)
(-2.84217e-14 0 0)
(-5.68434e-14 0 0)
(-6.39488e-14 0 0)
(-2.84217e-14 0 0)
(3.55271e-14 0 0)
(7.10543e-14 0 0)
(-7.85325e-22 0 0)
(-5.68434e-14 0 0)
(4.9738e-14 0 0)
(2.84217e-14 0 0)
(-2.84217e-14 0 0)
(3.55271e-14 0 0)
(7.10543e-15 0 0)
(-7.10543e-15 0 0)
(5.68434e-14 0 0)
(-2.13163e-14 0 0)
(-2.84217e-14 0 0)
(2.27243e-22 0 0)
(-1.42109e-14 0 0)
(4.9738e-14 0 0)
(-5.68434e-14 0 0)
(-4.9738e-14 0 0)
(4.9738e-14 0 0)
(1.42109e-14 0 0)
(-7.10543e-15 0 0)
(1.42109e-14 0 0)
(2.84217e-14 0 0)
(-2.13163e-14 0 0)
(-7.10543e-15 0 0)
(7.10543e-15 0 0)
(-6.39488e-14 0 0)
(7.10543e-15 0 0)
(4.26326e-14 0 0)
(-2.3827e-21 0 0)
(7.10543e-15 0 0)
(2.13163e-14 0 0)
(-3.55271e-14 0 0)
(-3.55271e-14 0 0)
(4.26326e-14 0 0)
(-8.52651e-14 0 0)
(-8.52651e-14 0 0)
(9.23706e-14 0 0)
(6.39488e-14 0 0)
(-7.10543e-15 0 0)
(2.13163e-14 0 0)
(7.10543e-15 0 0)
(2.13163e-14 0 0)
(2.13163e-14 0 0)
(-2.84217e-14 0 0)
(7.10543e-15 0 0)
(7.10543e-15 0 0)
(-5.24662e-22 0 0)
(-7.10543e-15 0 0)
(7.10543e-15 0 0)
(2.13163e-14 0 0)
(-1.26938e-21 0 0)
(-7.10543e-15 0 0)
(-2.84217e-14 0 0)
(-1.37599e-21 0 0)
(4.9738e-14 0 0)
(1.42109e-14 0 0)
(-2.13163e-14 0 0)
(-4.9738e-14 0 0)
(-7.10543e-14 0 0)
(-7.10543e-15 0 0)
(6.39488e-14 0 0)
(2.13163e-14 0 0)
(-2.84217e-14 0 0)
(-1.42109e-14 0 0)
(-2.84217e-14 0 0)
(7.10543e-15 0 0)
(-2.13163e-14 0 0)
(-2.84217e-14 0 0)
(2.13163e-14 0 0)
(3.55271e-14 0 0)
(7.10543e-15 0 0)
(1.42109e-14 0 0)
(7.10543e-15 0 0)
(-6.39488e-14 0 0)
(1.42109e-14 0 0)
(2.84217e-14 0 0)
(1.69112e-21 0 0)
(4.26326e-14 0 0)
(-1.42109e-14 0 0)
(-9.23706e-14 0 0)
(-3.55271e-14 0 0)
(6.39488e-14 0 0)
(3.55271e-14 0 0)
(7.10543e-15 0 0)
(7.10543e-15 0 0)
(-3.55271e-14 0 0)
(-2.13163e-14 0 0)
(-2.13163e-14 0 0)
(-2.13163e-14 0 0)
(3.55271e-14 0 0)
(-7.10543e-15 0 0)
(1.57181e-21 0 0)
(4.9738e-14 0 0)
(-7.10543e-15 0 0)
(2.84217e-14 0 0)
(5.68434e-14 0 0)
(-7.10543e-15 0 0)
(-3.55271e-14 0 0)
(-4.9738e-14 0 0)
(-5.68434e-14 0 0)
(1.42109e-14 0 0)
(3.55271e-14 0 0)
(1.42109e-14 0 0)
(-7.57587e-22 0 0)
(7.10543e-15 0 0)
(-1.42109e-14 0 0)
(4.9738e-14 0 0)
(5.68434e-14 0 0)
(-6.39488e-14 0 0)
(-1.42109e-14 0 0)
(-4.9738e-14 0 0)
(-1.26303e-21 0 0)
(5.68434e-14 0 0)
(1.42109e-14 0 0)
(-1.42109e-14 0 0)
(-2.13163e-14 0 0)
(-3.55271e-14 0 0)
(-2.13163e-14 0 0)
(4.9738e-14 0 0)
(1.42109e-14 0 0)
(3.15968e-22 0 0)
(-3.55271e-14 0 0)
(-2.13163e-14 0 0)
(4.26326e-14 0 0)
(1.42109e-14 0 0)
(2.13163e-14 0 0)
(-1.42109e-14 0 0)
(-9.23706e-14 0 0)
(-1.42109e-14 0 0)
(2.84217e-14 0 0)
(-4.26326e-14 0 0)
(2.84217e-14 0 0)
(2.84217e-14 0 0)
(1.97717e-21 0 0)
(2.13163e-14 0 0)
(7.10543e-15 0 0)
(9.9476e-14 0 0)
(4.9738e-14 0 0)
(-7.10542e-14 0 0)
(1.42109e-14 0 0)
(1.56319e-13 0 0)
(1.20792e-13 0 0)
(1.84741e-13 0 0)
(2.91323e-13 0 0)
(4.47642e-13 0 0)
(7.88703e-13 0 0)
(1.31451e-12 0 0)
(2.02505e-12 0 0)
(2.94876e-12 0 0)
(4.61143e-12 0 0)
(7.26886e-12 0 0)
(1.12266e-11 0 0)
(1.71738e-11 0 0)
(2.60556e-11 0 0)
(3.93925e-11 0 0)
(5.95933e-11 0 0)
(8.95853e-11 0 0)
(1.34009e-10 0 0)
(1.99819e-10 0 0)
(2.9651e-10 0 0)
(4.38022e-10 0 0)
(6.44079e-10 0 0)
(9.42657e-10 0 0)
(1.37351e-09 0 0)
(1.99215e-09 0 0)
(2.87573e-09 0 0)
(4.13155e-09 0 0)
(5.90764e-09 0 0)
(8.40677e-09 0 0)
(1.19051e-08 0 0)
(1.67766e-08 0 0)
(2.35248e-08 0 0)
(3.2823e-08 0 0)
(4.55656e-08 0 0)
(6.29333e-08 0 0)
(8.64738e-08 0 0)
(1.18203e-07 0 0)
(1.60726e-07 0 0)
(2.17386e-07 0 0)
(2.92445e-07 0 0)
(3.91285e-07 0 0)
(5.20659e-07 0 0)
(6.88965e-07 0 0)
(9.06559e-07 0 0)
(1.1861e-06 0 0)
(1.5429e-06 0 0)
(1.99536e-06 0 0)
(2.56527e-06 0 0)
(3.27827e-06 0 0)
(4.16407e-06 0 0)
(5.25678e-06 0 0)
(6.59495e-06 0 0)
(8.22161e-06 0 0)
(1.0184e-05 0 0)
(1.25329e-05 0 0)
(1.53222e-05 0 0)
(1.86073e-05 0 0)
(2.24438e-05 0 0)
(2.68854e-05 0 0)
(3.19818e-05 0 0)
(3.77754e-05 0 0)
(4.4299e-05 0 0)
(5.1572e-05 0 0)
(5.95972e-05 0 0)
(6.83578e-05 0 0)
(7.78145e-05 0 0)
(8.79029e-05 0 0)
(9.85325e-05 0 0)
(0.000109586 0 0)
(0.000120918 0 0)
(0.000132362 0 0)
(0.000143728 0 0)
(0.00015481 0 0)
(0.000165391 0 0)
(0.000175251 0 0)
(0.000184173 0 0)
(0.000191951 0 0)
(0.000198397 0 0)
(0.000203351 0 0)
(0.000206681 0 0)
(0.000208294 0 0)
(0.000208136 0 0)
(0.000206194 0 0)
(0.000202496 0 0)
(0.000197109 0 0)
(0.000190135 0 0)
(0.000181709 0 0)
(0.000171989 0 0)
(0.000161157 0 0)
(0.000149403 0 0)
(0.000136929 0 0)
(0.000123934 0 0)
(0.000110616 0 0)
(9.71616e-05 0 0)
(8.37459e-05 0 0)
(7.05275e-05 0 0)
(5.76468e-05 0 0)
(4.5225e-05 0 0)
(3.33629e-05 0 0)
(2.21416e-05 0 0)
(1.16226e-05 0 0)
(1.84899e-06 0 0)
(-7.15279e-06 0 0)
(-1.53717e-05 0 0)
(-2.28103e-05 0 0)
(-2.94826e-05 0 0)
(-3.54124e-05 0 0)
(-4.06313e-05 0 0)
(-4.51773e-05 0 0)
(-4.90925e-05 0 0)
(-5.24225e-05 0 0)
(-5.52148e-05 0 0)
(-5.75172e-05 0 0)
(-5.93774e-05 0 0)
(-6.08418e-05 0 0)
(-6.19548e-05 0 0)
(-6.27586e-05 0 0)
(-6.32927e-05 0 0)
(-6.35935e-05 0 0)
(-6.36944e-05 0 0)
(-6.36254e-05 0 0)
(-6.34137e-05 0 0)
(-6.30833e-05 0 0)
(-6.26552e-05 0 0)
(-6.2148e-05 0 0)
(-6.15774e-05 0 0)
(-6.09573e-05 0 0)
(-6.02992e-05 0 0)
(-5.96128e-05 0 0)
(-5.89065e-05 0 0)
(-5.81871e-05 0 0)
(-5.74601e-05 0 0)
(-5.67301e-05 0 0)
(-5.6001e-05 0 0)
(-5.52757e-05 0 0)
(-5.45566e-05 0 0)
(-5.38456e-05 0 0)
(-5.31443e-05 0 0)
(-5.24538e-05 0 0)
(-5.1775e-05 0 0)
(-5.11085e-05 0 0)
(-5.04549e-05 0 0)
(-4.98145e-05 0 0)
(-4.91874e-05 0 0)
(-4.85738e-05 0 0)
(-4.79738e-05 0 0)
(-4.73872e-05 0 0)
(-4.68141e-05 0 0)
(-4.62542e-05 0 0)
(-4.57075e-05 0 0)
(-4.51737e-05 0 0)
(-4.46527e-05 0 0)
(-4.41442e-05 0 0)
(-4.36479e-05 0 0)
(-4.31637e-05 0 0)
(-4.26912e-05 0 0)
(-4.22303e-05 0 0)
(-4.17806e-05 0 0)
(-4.13418e-05 0 0)
(-4.09136e-05 0 0)
(-4.04958e-05 0 0)
(-4.0088e-05 0 0)
(-3.96898e-05 0 0)
(-3.93009e-05 0 0)
(-3.89208e-05 0 0)
(-3.85491e-05 0 0)
(-3.81854e-05 0 0)
(-3.78292e-05 0 0)
(-3.74799e-05 0 0)
(-3.7137e-05 0 0)
(-3.68e-05 0 0)
(-3.64683e-05 0 0)
(-3.61413e-05 0 0)
(-3.58186e-05 0 0)
(-3.54994e-05 0 0)
(-3.51834e-05 0 0)
(-3.48701e-05 0 0)
(-3.45589e-05 0 0)
(-3.42496e-05 0 0)
(-3.39418e-05 0 0)
(-3.36352e-05 0 0)
(-3.33296e-05 0 0)
(-3.30249e-05 0 0)
(-3.27209e-05 0 0)
(-3.24176e-05 0 0)
(-3.21151e-05 0 0)
(-3.18134e-05 0 0)
(-3.15127e-05 0 0)
(-3.12129e-05 0 0)
(-3.09144e-05 0 0)
(-3.06173e-05 0 0)
(-3.03218e-05 0 0)
(-3.00281e-05 0 0)
(-2.97364e-05 0 0)
(-2.94469e-05 0 0)
(-2.91598e-05 0 0)
(-2.88753e-05 0 0)
(-2.85936e-05 0 0)
(-2.83149e-05 0 0)
(-2.80393e-05 0 0)
(-2.77669e-05 0 0)
(-2.7498e-05 0 0)
(-2.72325e-05 0 0)
(-2.69707e-05 0 0)
(-2.67127e-05 0 0)
(-2.64584e-05 0 0)
(-2.6208e-05 0 0)
(-2.59615e-05 0 0)
(-2.57189e-05 0 0)
(-2.54802e-05 0 0)
(-2.52453e-05 0 0)
(-2.50142e-05 0 0)
(-2.47867e-05 0 0)
(-2.45627e-05 0 0)
(-2.4342e-05 0 0)
(-2.41246e-05 0 0)
(-2.39103e-05 0 0)
(-2.36989e-05 0 0)
(-2.34903e-05 0 0)
(-2.32844e-05 0 0)
(-2.30811e-05 0 0)
(-2.28801e-05 0 0)
(-2.26812e-05 0 0)
(-2.24843e-05 0 0)
(-2.22891e-05 0 0)
(-2.20954e-05 0 0)
(-2.19031e-05 0 0)
(-2.17121e-05 0 0)
(-2.15223e-05 0 0)
(-2.13336e-05 0 0)
(-2.11461e-05 0 0)
(-2.09598e-05 0 0)
(-2.07746e-05 0 0)
(-2.05908e-05 0 0)
(-2.04082e-05 0 0)
(-2.02272e-05 0 0)
(-2.00474e-05 0 0)
(-1.98696e-05 0 0)
(-1.96924e-05 0 0)
(-1.95181e-05 0 0)
(-1.93427e-05 0 0)
(-1.91729e-05 0 0)
(-1.89975e-05 0 0)
(-1.88346e-05 0 0)
(-1.8656e-05 0 0)
(-1.8505e-05 0 0)
(-1.83177e-05 0 0)
(-1.81844e-05 0 0)
(-1.79845e-05 0 0)
(-1.78684e-05 0 0)
(-1.76658e-05 0 0)
(-1.75422e-05 0 0)
(-1.73821e-05 0 0)
(-1.71853e-05 0 0)
(-1.71514e-05 0 0)
(-1.67966e-05 0 0)
(-1.69499e-05 0 0)
(-1.64267e-05 0 0)
(-1.67031e-05 0 0)
(-1.615e-05 0 0)
(-1.63892e-05 0 0)
(-1.59832e-05 0 0)
(-1.59063e-05 0 0)
(-1.59651e-05 0 0)
(-1.58111e-05 0 0)
(-1.49176e-05 0 0)
(-1.60914e-05 0 0)
(-1.47502e-05 0 0)
(-1.48678e-05 0 0)
(-1.51271e-05 0 0)
(-1.49235e-05 0 0)
(-1.46411e-05 0 0)
(-1.49295e-05 0 0)
(-1.4141e-05 0 0)
(-1.46139e-05 0 0)
(-1.37318e-05 0 0)
(-1.44165e-05 0 0)
(-1.32455e-05 0 0)
(-1.47212e-05 0 0)
(-1.26253e-05 0 0)
(-1.59687e-05 0 0)
(-1.14662e-05 0 0)
(-1.70727e-05 0 0)
(-9.83597e-06 0 0)
(-1.77776e-05 0 0)
(-7.49008e-06 0 0)
(-8.68014e-06 0 0)
(-1.50387e-05 0 0)
(-4.14827e-06 0 0)
(-2.16698e-05 0 0)
(-1.10427e-05 0 0)
(-1.55275e-05 0 0)
(-1.01501e-05 0 0)
(-1.55394e-05 0 0)
(-1.07992e-05 0 0)
(-8.76972e-06 0 0)
(-4.25063e-05 0 0)
(1.489e-05 0 0)
(-6.8101e-06 0 0)
(-1.347e-05 0 0)
(-9.06704e-06 0 0)
(-1.08731e-05 0 0)
(-1.3325e-05 0 0)
(-8.33503e-06 0 0)
(-1.00285e-05 0 0)
(-1.27908e-05 0 0)
(-8.47421e-06 0 0)
(-1.01907e-05 0 0)
(-1.20365e-05 0 0)
(-8.9608e-06 0 0)
(-1.03893e-05 0 0)
(-1.0734e-05 0 0)
(-1.07659e-05 0 0)
(-1.56269e-05 0 0)
(-1.7504e-05 0 0)
(-2.0194e-05 0 0)
(1.63517e-06 0 0)
(3.20897e-06 0 0)
(-4.27483e-06 0 0)
(-5.23941e-07 0 0)
(-3.40567e-06 0 0)
(-8.04482e-07 0 0)
(-6.71052e-06 0 0)
(3.6683e-06 0 0)
(-1.11301e-05 0 0)
(1.06288e-05 0 0)
(3.50672e-06 0 0)
(1.86736e-06 0 0)
(7.49074e-06 0 0)
(-1.20877e-06 0 0)
(5.81089e-06 0 0)
(-1.11605e-06 0 0)
(5.33023e-06 0 0)
(-4.76888e-06 0 0)
(6.98243e-06 0 0)
(-7.02186e-06 0 0)
(1.00924e-05 0 0)
(2.61929e-06 0 0)
(5.20223e-06 0 0)
(9.82664e-06 0 0)
(1.34063e-06 0 0)
(5.35795e-06 0 0)
(3.80718e-06 0 0)
(5.03884e-07 0 0)
(7.7064e-06 0 0)
(3.49868e-06 0 0)
(7.5977e-06 0 0)
(8.32542e-06 0 0)
(6.11528e-06 0 0)
(6.30216e-06 0 0)
(7.71065e-06 0 0)
(4.82353e-06 0 0)
(9.31007e-06 0 0)
(7.75179e-06 0 0)
(8.95647e-06 0 0)
(8.34746e-06 0 0)
(8.82459e-06 0 0)
(7.87289e-06 0 0)
(1.17855e-05 0 0)
(1.10765e-05 0 0)
(1.02716e-05 0 0)
(2.91421e-05 0 0)
(-6.54043e-06 0 0)
(9.10444e-06 0 0)
(1.33839e-05 0 0)
(1.08092e-05 0 0)
(1.18306e-05 0 0)
(1.50148e-05 0 0)
(1.19758e-05 0 0)
(1.37991e-05 0 0)
(1.42274e-05 0 0)
(1.61283e-05 0 0)
(1.6191e-05 0 0)
(1.72911e-05 0 0)
(1.54471e-05 0 0)
(1.20672e-05 0 0)
(1.33687e-05 0 0)
(1.43864e-05 0 0)
(2.26293e-05 0 0)
(2.58054e-05 0 0)
(2.75987e-05 0 0)
(2.05697e-05 0 0)
(1.13673e-05 0 0)
(4.77348e-06 0 0)
(3.54847e-06 0 0)
(1.34278e-05 0 0)
(2.54358e-05 0 0)
(3.92048e-05 0 0)
(4.22001e-05 0 0)
(3.81604e-05 0 0)
(2.56058e-05 0 0)
(1.0204e-05 0 0)
(6.50675e-06 0 0)
(1.7007e-06 0 0)
(4.46302e-06 0 0)
(1.98676e-05 0 0)
(6.80383e-06 0 0)
(5.4226e-06 0 0)
(-2.44103e-05 0 0)
(-3.05224e-05 0 0)
(-0.00057724 0 0)
(0.000851138 0 0)
(0.000432108 0 0)
(0.0045673 0 0)
(-0.00165186 0 0)
(0.00027524 0 0)
(-3.35012e-06 0 0)
(5.062e-05 0 0)
(4.97645e-05 0 0)
(3.1369e-05 0 0)
(2.31033e-05 0 0)
(9.99691e-05 0 0)
(-9.86799e-05 0 0)
(-0.000633486 0 0)
(0.000203442 0 0)
(0.000825242 0 0)
)
;

boundaryField
{
    sideLeft
    {
        type            symmetryPlane;
    }
    sideRight
    {
        type            calculated;
        value           uniform (-0.431969 0 0);
    }
    topbottom
    {
        type            empty;
    }
    frontback
    {
        type            empty;
    }
}


// ************************************************************************* //
