/*--------------------------------*- C++ -*----------------------------------*\
| =========                 |                                                 |
| \\      /  F ield         | OpenFOAM: The Open Source CFD Toolbox           |
|  \\    /   O peration     | Version:  2.4.0                                 |
|   \\  /    A nd           | Web:      www.OpenFOAM.org                      |
|    \\/     M anipulation  |                                                 |
\*---------------------------------------------------------------------------*/
FoamFile
{
    version     2.0;
    format      ascii;
    class       surfaceScalarField;
    location    "0.06";
    object      phi.water;
}
// * * * * * * * * * * * * * * * * * * * * * * * * * * * * * * * * * * * * * //

dimensions      [0 3 -1 0 0 0 0];

internalField   nonuniform List<scalar> 
999
(
-8.74028e-13
-1.94735e-12
-2.31732e-12
-1.48634e-12
-1.42109e-13
9.19787e-13
1.87824e-12
1.03254e-12
-3.69482e-13
-7.28295e-13
-1.11341e-12
-7.37339e-13
-4.34639e-13
-6.92809e-13
5.54404e-13
-1.03218e-13
-9.57953e-13
-4.67136e-13
-9.6208e-13
-1.42725e-12
-1.25285e-12
-1.31337e-12
-1.3136e-12
-9.50529e-13
-1.39658e-12
-6.97668e-13
-6.63948e-13
-1.56127e-13
4.04779e-13
2.30322e-12
2.23846e-12
3.32997e-12
2.78485e-12
2.15776e-12
1.68578e-12
1.19155e-12
1.15731e-12
-2.27225e-13
-3.18586e-13
-8.03143e-13
-4.81175e-13
-1.1462e-12
-1.12283e-12
-2.71095e-12
-1.60454e-12
-8.63366e-13
-4.61137e-13
1.11926e-13
-1.00196e-12
3.62377e-13
6.46108e-13
7.08307e-13
7.74733e-13
1.42108e-13
1.44689e-12
1.87115e-12
1.97216e-12
1.43478e-12
8.39369e-13
3.79466e-14
1.42108e-14
-1.49196e-12
-1.68754e-12
-4.47325e-13
-9.819e-13
-2.10036e-12
-2.04173e-12
1.13687e-13
9.94757e-14
-3.01071e-13
-1.39169e-13
2.55796e-13
-1.135e-12
-1.59785e-12
-2.47954e-12
-2.36757e-12
-3.70457e-12
-3.74828e-12
-3.35819e-12
-4.0258e-12
-3.55521e-12
-2.99386e-12
-2.3398e-12
-2.06754e-12
-1.29681e-12
-1.53405e-12
-1.25747e-12
-9.77218e-13
-7.7557e-13
-1.76373e-13
-2.02021e-13
-1.37453e-12
-1.55773e-12
-2.13894e-12
-2.11497e-12
-2.77949e-12
-2.83867e-12
-2.18221e-12
-1.7414e-12
-7.97424e-13
-1.76545e-12
-1.09759e-12
-3.15803e-13
-3.12639e-13
1.11179e-12
1.00897e-12
7.83214e-13
-9.82506e-15
8.92173e-14
8.32279e-13
1.48586e-12
1.38778e-12
1.4524e-12
5.59984e-13
6.59695e-13
8.93909e-13
2.56412e-13
1.05108e-12
4.26326e-13
1.11729e-12
1.29959e-12
1.86113e-13
-2.34231e-13
-7.85217e-13
-1.58473e-12
-1.9189e-12
-7.35096e-13
-8.09591e-13
-9.80672e-13
1.42107e-14
-2.27623e-13
-8.04459e-13
-8.0025e-13
-5.57114e-13
1.06151e-12
2.318e-13
-9.26399e-13
-6.99641e-13
-7.81281e-13
2.72294e-13
-1.46235e-14
-6.80812e-13
-9.80044e-13
-4.18541e-13
-2.07279e-12
-1.20019e-12
-1.28669e-12
-2.42591e-12
-2.81783e-12
-2.67867e-12
-1.45384e-12
-7.99481e-13
-7.77648e-13
-8.00818e-13
-2.0046e-12
1.84741e-13
8.61706e-13
5.3091e-13
-7.22045e-15
2.70041e-14
-5.03487e-13
-1.04251e-12
-7.60575e-13
-9.07982e-13
-2.52925e-13
-3.74596e-13
-5.45983e-13
-7.82167e-13
-1.33836e-12
-2.42223e-12
-2.95071e-12
-3.57451e-12
-3.0568e-12
-2.72097e-12
-2.9583e-12
-3.21068e-12
-3.58373e-12
-3.90298e-12
-2.68795e-12
-3.99811e-12
-3.86941e-12
-2.68294e-12
-2.93267e-12
-2.00536e-12
-2.28991e-12
-1.61132e-12
-2.31941e-12
-3.55693e-12
-2.89544e-12
-2.08882e-12
-1.44123e-12
-1.05203e-12
-5.54224e-13
-1.19024e-12
9.95786e-16
4.26326e-13
1.94075e-12
1.91533e-12
2.16157e-12
2.73527e-12
2.35349e-12
1.40535e-12
7.97498e-13
1.84627e-12
1.19093e-12
1.33115e-12
1.65759e-12
1.85571e-12
1.97938e-12
2.24188e-12
2.10524e-12
7.08728e-13
1.72014e-13
3.48124e-13
1.27025e-12
1.65756e-12
1.39447e-12
8.38441e-13
9.77241e-13
1.85991e-12
1.84601e-12
1.58312e-12
1.47338e-12
1.62091e-12
1.26744e-12
1.62385e-12
2.2169e-12
2.171e-12
2.51456e-12
9.30515e-13
1.3194e-13
2.11643e-13
9.33033e-13
1.63867e-12
9.36028e-13
1.37976e-12
1.78277e-12
2.53374e-12
1.00203e-12
2.38064e-13
-2.55796e-13
-1.01448e-12
-1.7242e-12
-1.28067e-12
5.44505e-14
1.53126e-12
1.78963e-12
1.51951e-12
1.65347e-12
1.61931e-12
1.46189e-12
8.50518e-13
-9.34464e-13
3.0287e-14
-3.69482e-13
-1.16814e-14
1.13734e-12
1.16575e-12
2.24768e-12
1.7214e-12
1.49926e-12
5.25802e-13
-1.13687e-13
-9.36002e-13
-4.37672e-13
-8.31795e-13
2.41584e-13
5.4145e-13
8.64313e-14
6.26863e-13
-3.97904e-13
-1.8637e-12
-2.10161e-12
-2.71867e-12
-2.05735e-12
-1.23077e-12
-3.12639e-13
-7.47595e-13
-1.0726e-12
-1.37627e-12
-8.09308e-13
-2.05275e-12
-2.92195e-12
-2.86543e-12
-1.45399e-12
-1.18016e-12
-9.93191e-13
-1.71762e-13
4.79142e-13
4.45734e-13
1.11199e-12
-5.68437e-14
1.71833e-13
4.78017e-13
8.57825e-13
1.57709e-13
-4.13682e-13
-1.20037e-12
-9.03346e-13
-5.96856e-13
2.21691e-13
-9.6981e-13
-7.17441e-13
-9.53888e-13
-2.3809e-12
-1.37561e-12
-1.29322e-12
-1.09176e-12
-1.85897e-12
-7.39974e-13
-1.35452e-12
-1.7433e-12
-9.12756e-13
-8.75037e-13
-3.97904e-13
-4.54916e-13
5.40363e-13
1.84741e-13
2.4706e-12
3.13639e-12
3.20675e-12
4.78651e-12
2.84497e-12
3.33776e-12
3.60618e-12
3.1793e-12
4.36521e-12
3.81023e-12
2.28478e-12
1.75056e-12
2.04144e-12
1.9472e-12
1.73301e-12
4.35245e-13
4.48327e-13
2.93295e-13
-1.03686e-12
-9.24001e-13
-2.06102e-13
-8.55448e-13
-4.48039e-13
-4.83169e-13
-4.09192e-13
-4.68958e-13
-4.82662e-13
-8.80734e-13
-2.93509e-13
5.1946e-13
9.50387e-13
9.38924e-13
1.67851e-12
-7.10543e-13
-4.17358e-13
-1.78003e-12
-1.64586e-12
-1.36894e-12
-1.51545e-12
2.97816e-13
1.63409e-12
7.0325e-13
1.29488e-12
2.24881e-12
2.64484e-12
9.01965e-13
8.47178e-13
1.96298e-12
1.98123e-12
2.14626e-12
1.96654e-12
1.9183e-12
2.24621e-12
2.75929e-12
2.2594e-12
2.58847e-12
1.24667e-12
6.18821e-13
7.04834e-13
-4.25582e-13
-8.67631e-13
6.4554e-13
8.95284e-13
2.27373e-13
-1.612e-12
-5.78632e-13
-5.68427e-14
-4.86097e-13
-8.2244e-13
-1.625e-12
-8.46036e-13
1.01215e-12
3.74284e-13
-2.80631e-14
-5.96855e-13
-4.10963e-14
2.41584e-13
2.68361e-13
1.01055e-12
2.50583e-13
-8.52656e-14
5.81946e-13
-9.43417e-14
-5.67978e-13
-1.08527e-12
-4.89568e-13
-3.11697e-13
-2.0618e-12
-1.86445e-12
-1.83137e-12
-5.30039e-13
-1.47384e-12
-1.32877e-12
-9.74151e-14
-2.95515e-14
-8.24282e-13
-2.6551e-13
-7.44081e-14
7.80652e-13
8.91051e-13
1.39396e-12
6.45883e-13
6.21149e-13
1.69238e-12
1.36173e-12
1.99433e-12
1.01418e-12
1.39783e-12
6.39488e-13
2.80392e-12
2.51477e-12
2.39677e-12
2.39001e-12
1.5951e-12
7.9434e-13
1.43964e-12
2.68187e-12
3.05441e-12
1.76723e-12
2.06124e-12
2.67468e-12
1.8076e-12
9.92565e-13
3.50484e-14
4.53863e-13
7.96206e-14
-4.94639e-13
-1.94206e-13
-1.34133e-12
-1.30075e-12
-9.06691e-13
-2.25948e-12
-1.91288e-12
-1.16747e-12
-1.49689e-12
-8.6999e-13
-1.6444e-12
-1.59669e-12
-1.45465e-12
-1.3437e-12
-2.31378e-12
-1.59919e-12
-2.63987e-12
-2.13893e-12
-1.44018e-12
-8.08591e-13
-4.95429e-13
-5.56877e-14
-9.96881e-13
-3.10055e-13
-3.99544e-13
-1.38739e-12
-1.36348e-12
-1.81479e-12
-4.10562e-12
-2.28131e-12
-3.82436e-12
-3.3995e-12
-2.1487e-12
-2.58473e-12
-2.20775e-12
-1.58935e-12
-8.43752e-13
-9.38589e-13
-2.84217e-13
-1.49595e-12
-1.61689e-12
-1.33702e-12
-1.32875e-12
2.55796e-13
-2.55855e-13
-3.92595e-13
-7.25671e-13
-1.37756e-12
-6.00042e-14
-7.69215e-13
-7.91548e-13
-1.42802e-12
-1.57355e-12
-4.08944e-13
2.80223e-13
-2.79454e-13
-2.599e-13
-4.22527e-13
2.88588e-13
6.55286e-13
6.91276e-13
1.56807e-12
2.1543e-12
2.73189e-12
3.08624e-12
3.94391e-12
2.86736e-12
3.2265e-12
4.09591e-12
4.53529e-12
5.14897e-12
4.80959e-12
3.70843e-12
3.67621e-12
3.27973e-12
3.12529e-12
2.87588e-12
2.43005e-12
1.35278e-12
1.59771e-12
1.26897e-12
9.36525e-13
7.72484e-13
1.71867e-12
2.33609e-12
2.19169e-12
1.23485e-12
1.5776e-12
1.84741e-13
1.56861e-13
-6.39489e-13
-1.12993e-12
-1.30285e-12
-9.14845e-13
-5.5753e-13
-8.55286e-13
-3.68975e-13
-3.14148e-13
-2.87629e-13
-7.37514e-13
-7.57388e-13
-9.52445e-13
-8.81871e-13
-7.10543e-13
1.05738e-12
8.93386e-13
1.48356e-12
1.06027e-12
-9.5015e-13
-1.0689e-12
-1.80935e-12
-1.72627e-12
-1.25109e-12
-1.75991e-12
-9.13246e-13
-3.46265e-13
-6.30818e-13
7.73424e-14
3.23291e-13
7.59534e-13
5.03111e-13
6.08266e-13
1.43035e-12
1.34024e-12
1.06515e-12
1.32367e-12
9.13164e-13
1.71737e-12
7.88607e-13
8.71033e-13
1.45059e-12
8.13499e-13
-2.76322e-19
5.68437e-14
-3.56226e-13
-7.92098e-13
-2.24153e-12
-1.85738e-12
-1.56738e-12
-1.69961e-12
-2.72453e-12
-3.35369e-12
-3.65797e-12
-4.01828e-12
-3.40011e-12
-3.01205e-12
-1.26137e-12
-5.35191e-13
1.24751e-12
2.02442e-12
1.13142e-12
1.50643e-12
-7.10543e-14
7.41622e-13
-6.95576e-13
-7.12257e-13
-1.08767e-12
-2.40244e-12
-2.59128e-12
-1.61688e-12
-1.87815e-12
-7.21447e-13
-1.2255e-12
-3.62206e-13
-1.20733e-12
-8.22192e-13
-1.28161e-12
-1.09299e-12
-1.47901e-12
-2.62388e-13
7.4758e-13
1.44211e-12
1.24528e-12
2.34237e-12
1.33493e-12
2.4354e-13
4.90514e-13
8.46952e-13
6.22413e-13
-8.40958e-13
-1.73153e-12
-4.26326e-13
6.41001e-13
3.55272e-13
8.47136e-13
6.0479e-13
1.50567e-12
2.17078e-12
2.26249e-12
1.26094e-12
1.00773e-12
5.87876e-13
6.51099e-13
3.80861e-13
-2.81221e-13
-3.93644e-13
-1.4969e-12
-1.4553e-12
-2.81304e-12
-1.54955e-12
-5.96644e-13
-8.68029e-13
5.68428e-14
9.3049e-14
3.2685e-13
-2.98428e-13
1.0252e-12
6.4554e-13
3.84944e-13
3.41061e-13
1.02266e-12
1.35993e-12
1.9818e-12
2.22133e-12
-2.86454e-14
-1.58125e-12
-9.06449e-13
4.02097e-13
4.40537e-13
-9.94758e-14
-7.02892e-13
-4.3275e-13
-3.25306e-13
4.85189e-14
1.61837e-13
4.60575e-13
7.90748e-13
9.53612e-13
9.42556e-13
6.82501e-13
7.02059e-13
3.0717e-13
2.70006e-13
-1.49015e-12
-1.70647e-12
-1.29075e-12
-1.37499e-12
-7.56374e-15
2.27374e-13
1.88389e-13
-2.88517e-13
-3.462e-13
-4.95779e-13
-2.84217e-13
-4.75035e-13
-2.66456e-12
-3.27404e-12
-3.48854e-12
-3.87778e-12
-1.87416e-12
-1.69319e-12
-1.5835e-12
-7.11023e-13
-1.30061e-12
-6.38199e-13
-1.20283e-12
-1.0123e-12
-6.53243e-13
-1.27418e-12
-2.97599e-13
-9.94764e-14
-1.13737e-12
-6.91916e-13
-1.1101e-12
-9.54148e-13
-6.98616e-13
-8.42371e-13
-5.99781e-13
2.49034e-13
5.62296e-13
1.55121e-12
6.45478e-13
6.81738e-13
6.48689e-13
7.36765e-13
3.66567e-13
-3.10718e-13
-1.03542e-12
-4.33343e-13
-1.77879e-12
-2.00531e-12
-2.22799e-12
-1.6425e-12
-6.34787e-13
2.51112e-13
1.74588e-12
2.40961e-12
3.06501e-12
2.35978e-12
1.37516e-12
1.27904e-12
1.03027e-12
1.85656e-12
1.54986e-12
1.01062e-12
5.16276e-13
1.26204e-12
-1.27897e-13
1.56365e-13
3.4106e-13
-7.29271e-13
-8.21796e-13
3.12086e-13
1.06603e-12
2.3944e-12
3.61875e-12
6.50458e-12
1.36365e-11
2.38184e-11
4.3354e-11
7.84247e-11
1.42544e-10
2.58042e-10
4.6743e-10
8.46005e-10
1.51631e-09
2.70597e-09
4.80025e-09
8.46307e-09
1.48353e-08
2.58503e-08
4.47754e-08
7.70888e-08
1.31923e-07
2.24382e-07
3.79288e-07
6.37147e-07
1.06358e-06
1.76415e-06
2.90742e-06
4.76056e-06
7.74387e-06
1.25134e-05
2.00856e-05
3.20222e-05
5.07045e-05
7.97328e-05
0.000124507
0.000193054
0.000297211
0.000454271
0.000689283
0.00103819
0.0015521
0.00230298
0.00339119
0.00495531
0.00718473
0.0103356
0.0147506
0.0208834
0.029327
0.0408489
0.0564292
0.0773045
0.105015
0.141455
0.18892
0.250151
0.32838
0.427348
0.551327
0.705102
0.893946
1.12356
1.39997
1.72945
2.11831
2.57281
3.09893
3.70218
4.38747
5.1589
6.01961
6.97171
8.01618
9.15284
10.3804
11.6964
13.0975
14.5795
16.1372
17.7653
19.4578
21.2086
23.0114
24.8602
26.7492
28.6727
30.6257
32.6035
34.6019
36.6173
38.6465
40.6869
42.7363
44.7927
46.8548
48.9214
50.9915
53.0646
55.1402
57.2179
59.2974
61.3787
63.4617
65.5464
67.6328
69.7211
71.8112
73.9034
75.9977
78.0944
80.1936
82.2954
84.4
86.5077
88.6185
90.7328
92.8506
94.9722
97.0977
99.2274
101.361
103.5
105.643
107.791
109.944
112.103
114.266
116.436
118.611
120.791
122.978
125.171
127.37
129.576
131.788
134.007
136.233
138.465
140.705
142.951
145.204
147.465
149.733
152.008
154.29
156.579
158.876
161.181
163.493
165.812
168.14
170.475
172.818
175.138
177.464
179.796
182.134
184.479
186.83
189.188
191.552
193.923
196.301
198.686
201.077
203.475
205.879
208.291
210.71
213.136
215.569
218.008
220.455
222.909
225.371
227.839
230.314
232.796
235.285
237.781
240.284
242.793
245.31
247.833
250.363
252.9
255.444
257.994
260.551
263.115
265.686
268.263
270.847
273.437
276.035
278.638
281.249
283.866
286.489
289.119
291.755
294.399
297.047
299.703
302.363
305.03
307.699
310.376
313.06
315.751
318.447
321.148
323.852
326.56
329.275
331.995
334.718
337.445
340.177
342.912
345.651
348.393
351.138
353.886
356.636
359.388
362.143
364.899
367.656
370.413
373.17
375.926
378.682
381.436
384.188
386.938
389.684
392.426
395.164
397.895
400.62
403.337
406.045
408.744
411.432
414.107
416.769
419.416
422.047
424.538
427.28
430.622
)
;

boundaryField
{
    sideLeft
    {
        type            symmetryPlane;
        value           uniform 0;
    }
    sideRight
    {
        type            calculated;
        value           uniform 1597.19;
    }
    topbottom
    {
        type            empty;
        value           nonuniform 0();
    }
    frontback
    {
        type            empty;
        value           nonuniform 0();
    }
}


// ************************************************************************* //
