/*--------------------------------*- C++ -*----------------------------------*\
| =========                 |                                                 |
| \\      /  F ield         | OpenFOAM: The Open Source CFD Toolbox           |
|  \\    /   O peration     | Version:  2.4.0                                 |
|   \\  /    A nd           | Web:      www.OpenFOAM.org                      |
|    \\/     M anipulation  |                                                 |
\*---------------------------------------------------------------------------*/
FoamFile
{
    version     2.0;
    format      ascii;
    class       surfaceScalarField;
    location    "0.06";
    object      phi.air;
}
// * * * * * * * * * * * * * * * * * * * * * * * * * * * * * * * * * * * * * //

dimensions      [0 3 -1 0 0 0 0];

internalField   nonuniform List<scalar> 
999
(
-8.74028e-13
-1.83366e-12
-2.37416e-12
-1.60003e-12
2.84217e-14
9.19787e-13
2.04877e-12
6.91484e-13
-2.55796e-13
-5.57765e-13
-1.2271e-12
-1.13524e-12
1.33795e-13
-6.92809e-13
2.70187e-13
6.73122e-14
-1.24217e-12
-4.67136e-13
-8.48393e-13
-1.08619e-12
-1.25285e-12
-1.42705e-12
-1.14307e-12
-1.1779e-12
-1.16921e-12
-6.97668e-13
-7.77635e-13
-2.12971e-13
5.75309e-13
2.47375e-12
2.40899e-12
3.15944e-12
2.84169e-12
2.04407e-12
1.45841e-12
1.07786e-12
1.27099e-12
-2.27225e-13
-9.12125e-14
-5.75769e-13
-1.1633e-12
-9.75673e-13
-1.40705e-12
-2.36989e-12
-1.43401e-12
-9.77053e-13
-6.31667e-13
-1.15448e-13
-6.60904e-13
4.19221e-13
7.02951e-13
9.3568e-13
9.26117e-14
2.55795e-13
1.33321e-12
1.70062e-12
2.37006e-12
1.09372e-12
1.29412e-12
-1.88968e-14
-2.70006e-13
-1.77618e-12
-1.46017e-12
-5.04168e-13
-8.68213e-13
-2.10036e-12
-1.58699e-12
-3.4106e-13
3.83693e-13
-3.01071e-13
-4.23386e-13
2.8422e-14
-9.07625e-13
-1.42732e-12
-2.4227e-12
-2.5381e-12
-3.70457e-12
-3.86196e-12
-3.07397e-12
-4.0258e-12
-3.49837e-12
-3.0507e-12
-2.51034e-12
-2.35176e-12
-1.4105e-12
-1.53405e-12
-9.16414e-13
-9.77218e-13
-4.91353e-13
-3.46904e-13
-5.43082e-13
-6.92404e-13
-1.95564e-12
-2.25263e-12
-1.94444e-12
-2.83634e-12
-2.66814e-12
-2.52327e-12
-1.57087e-12
-1.0248e-12
-1.42439e-12
-1.43865e-12
-3.15803e-13
-3.12639e-13
1.28232e-12
9.52127e-13
7.83214e-13
-9.82506e-15
6.57652e-13
5.48062e-13
1.37218e-12
1.16041e-12
1.56609e-12
6.73671e-13
8.87068e-13
5.52849e-13
-1.98335e-13
1.56267e-12
4.26326e-13
1.00361e-12
1.35644e-12
2.42956e-13
-3.47918e-13
-5.57844e-13
-1.92579e-12
-1.97575e-12
-5.07723e-13
-9.23277e-13
-7.53298e-13
-4.40537e-13
2.83968e-13
-7.47615e-13
-1.02762e-12
-3.29741e-13
8.34136e-13
-5.24174e-14
-6.42182e-13
-5.85954e-13
-6.67595e-13
-1.19229e-14
-7.14669e-14
-5.10282e-13
-9.232e-13
-5.32228e-13
-1.90226e-12
-1.37072e-12
-1.28669e-12
-1.97117e-12
-3.67049e-12
-2.28077e-12
-1.34015e-12
-9.70011e-13
-8.91335e-13
-8.57662e-13
-1.83407e-12
1.42108e-14
1.20277e-12
3.03536e-13
1.06466e-13
-1.43526e-13
-5.60331e-13
-1.1562e-12
-6.46888e-13
-3.39547e-13
-5.37142e-13
-7.15657e-13
-3.1861e-13
-1.40744e-12
-1.11099e-12
-2.36539e-12
-2.66649e-12
-3.57451e-12
-2.88627e-12
-2.83466e-12
-2.73093e-12
-3.21068e-12
-3.64058e-12
-3.67561e-12
-2.74479e-12
-4.28232e-12
-3.92625e-12
-2.96715e-12
-2.53476e-12
-2.23274e-12
-1.72148e-12
-1.78185e-12
-2.48994e-12
-3.3864e-12
-2.83859e-12
-2.37303e-12
-1.38439e-12
-1.10887e-12
-6.11067e-13
-1.07655e-12
-5.58476e-14
5.96856e-13
1.59969e-12
1.91533e-12
2.21842e-12
2.79211e-12
2.23981e-12
1.00744e-12
1.25225e-12
1.95995e-12
1.47515e-12
1.38799e-12
1.25969e-12
1.91256e-12
2.32044e-12
2.07135e-12
1.82102e-12
4.81354e-13
7.40448e-13
5.75498e-13
1.09972e-12
1.94177e-12
9.39727e-13
8.38441e-13
1.3183e-12
1.63254e-12
2.18707e-12
1.52627e-12
1.58707e-12
1.3367e-12
1.2106e-12
1.79438e-12
2.04637e-12
2.171e-12
2.62825e-12
7.59985e-13
4.16157e-13
-1.29417e-13
8.7619e-13
1.69552e-12
9.92871e-13
8.68165e-13
2.18068e-12
2.64743e-12
7.17813e-13
3.51751e-13
1.42108e-13
-1.18501e-12
-1.61051e-12
-1.4512e-12
-3.43453e-13
1.986e-12
1.84647e-12
1.40582e-12
1.59662e-12
1.33509e-12
1.40505e-12
1.19158e-12
-7.0709e-13
-2.65564e-14
-1.42109e-13
-8.07489e-13
1.13734e-12
1.56365e-12
2.24768e-12
1.55087e-12
1.61294e-12
4.12115e-13
-1.13687e-13
-4.81255e-13
-5.51359e-13
-1.34339e-12
6.39488e-13
4.84606e-13
1.43275e-13
6.26863e-13
-5.11591e-13
-1.4658e-12
-2.32899e-12
-2.54814e-12
-2.1142e-12
-1.62867e-12
-1.42109e-13
-9.74969e-13
-9.02074e-13
-1.03521e-12
-1.26406e-12
-1.9959e-12
-2.80827e-12
-2.6949e-12
-1.62452e-12
-1.12331e-12
-1.22056e-12
5.56116e-14
4.79142e-13
3.88891e-13
8.27773e-13
2.27373e-13
1.30291e-15
4.21174e-13
6.30452e-13
2.71396e-13
-1.86308e-13
-9.16153e-13
-1.13072e-12
-3.69482e-13
5.05908e-13
-9.6981e-13
-7.74284e-13
-1.23811e-12
-2.49459e-12
-1.14824e-12
-1.40691e-12
-1.54651e-12
-1.51791e-12
-7.96817e-13
-1.35452e-12
-1.40224e-12
-7.42226e-13
-9.88723e-13
-6.25278e-13
-3.41229e-13
-1.41758e-13
1.09424e-12
2.18639e-12
2.85217e-12
4.00255e-12
3.64964e-12
3.35657e-12
3.22408e-12
3.66302e-12
3.52036e-12
3.45572e-12
4.37866e-12
2.28478e-12
1.8074e-12
2.21197e-12
1.60614e-12
1.96038e-12
4.35245e-13
2.20953e-13
4.63825e-13
-7.52646e-13
-6.39784e-13
-6.60849e-13
-1.19651e-12
-2.77509e-13
-2.55796e-13
-5.22879e-13
-3.55271e-13
-6.53192e-13
-8.23891e-13
-1.22979e-13
1.21556e-13
1.17776e-12
1.50736e-12
9.39542e-13
-4.83169e-13
-5.87889e-13
-1.49582e-12
-1.87323e-12
-1.42579e-12
-1.68598e-12
3.54659e-13
1.40672e-12
1.21484e-12
1.35172e-12
1.79406e-12
2.47431e-12
1.24303e-12
1.01771e-12
1.79245e-12
1.8107e-12
2.25995e-12
1.73917e-12
2.08883e-12
2.98517e-12
2.47508e-12
1.86149e-12
2.41794e-12
1.30351e-12
6.18821e-13
6.47991e-13
-1.41365e-13
-9.81318e-13
3.0448e-13
1.12266e-12
4.54747e-13
-1.66884e-12
-5.78632e-13
-1.7053e-13
-4.29253e-13
-8.79283e-13
-1.45447e-12
-9.0288e-13
8.41616e-13
7.15344e-13
-8.23871e-13
8.52656e-14
-2.11627e-13
3.55271e-13
4.09871e-14
1.4653e-12
1.36896e-13
2.55795e-13
-4.33314e-14
-3.74983e-14
-6.24822e-13
-6.30518e-13
-4.89568e-13
-9.36975e-13
-1.55021e-12
-2.20551e-12
-1.60399e-12
-5.30039e-13
-9.62253e-13
-1.4993e-12
-8.3638e-13
1.40979e-13
-8.5318e-14
-8.33945e-13
2.09809e-13
8.37495e-13
6.63677e-13
1.28027e-12
7.02726e-13
7.34836e-13
1.29447e-12
9.63823e-13
2.2217e-12
1.41209e-12
1.17046e-12
9.23706e-13
2.69024e-12
2.40108e-12
2.28309e-12
2.27633e-12
1.76563e-12
9.08027e-13
1.04174e-12
2.62503e-12
3.16809e-12
2.10829e-12
2.23177e-12
2.16309e-12
2.43287e-12
4.24131e-13
1.48735e-13
-5.77277e-14
3.63838e-13
-5.51482e-13
-2.36755e-14
-8.86581e-13
-2.03971e-12
-5.08788e-13
-2.43001e-12
-1.96972e-12
-1.39484e-12
-1.09899e-12
-8.6999e-13
-1.53071e-12
-1.65353e-12
-1.51149e-12
-1.3437e-12
-2.0864e-12
-1.88341e-12
-2.69671e-12
-1.5705e-12
-1.72439e-12
-7.51747e-13
-3.81742e-13
-5.67279e-13
-4.28447e-13
-3.10055e-13
-6.83761e-13
-1.33055e-12
-1.30663e-12
-2.44007e-12
-3.13928e-12
-2.7929e-12
-3.59699e-12
-2.94475e-12
-2.71713e-12
-2.4142e-12
-2.32143e-12
-1.58935e-12
-9.57439e-13
-7.68059e-13
-5.68434e-13
-8.13824e-13
-2.01479e-12
-7.11743e-13
-1.21506e-12
-4.26325e-13
-8.53249e-14
-2.22065e-13
-1.00989e-12
-9.79658e-13
-5.71595e-13
-3.71311e-13
-1.18945e-12
-1.31433e-12
-1.40302e-12
-5.22631e-13
2.80223e-13
-2.79454e-13
-1.46213e-13
-1.95153e-13
-1.09316e-13
8.8266e-13
4.63903e-13
1.68176e-12
2.26799e-12
2.67504e-12
2.97256e-12
3.94391e-12
2.69683e-12
2.94228e-12
4.94856e-12
4.4216e-12
4.86475e-12
5.09381e-12
3.76528e-12
3.50568e-12
3.1092e-12
3.52319e-12
2.76219e-12
2.60058e-12
1.06856e-12
1.48402e-12
1.38266e-12
1.10706e-12
8.29327e-13
1.54814e-12
2.16556e-12
2.36222e-12
1.40538e-12
1.35023e-12
7.10543e-14
-1.36694e-14
-4.68958e-13
-1.30046e-12
-1.246e-12
-9.14845e-13
-1.59626e-13
-8.55286e-13
-8.23722e-13
-2.57304e-13
-2.87629e-13
1.45027e-15
-1.32582e-12
-6.11384e-13
-1.16609e-12
-6.53699e-13
7.16315e-13
1.34813e-12
1.5404e-12
8.329e-13
-8.93307e-13
-1.35311e-12
-1.63882e-12
-1.55574e-12
-1.47846e-12
-1.53254e-12
-6.85872e-13
-6.87325e-13
-4.03444e-13
-3.63445e-14
3.80135e-13
7.59534e-13
6.16798e-13
6.6511e-13
9.75598e-13
1.51077e-12
1.5199e-12
1.03946e-12
1.36791e-12
1.60368e-12
5.0439e-13
1.15525e-12
1.10953e-12
8.13499e-13
1.13687e-13
1.13687e-13
-5.26756e-13
-9.62629e-13
-2.12785e-12
-1.74369e-12
-1.56738e-12
-1.81329e-12
-2.66769e-12
-3.46738e-12
-3.31691e-12
-4.07512e-12
-3.96854e-12
-2.61415e-12
-1.20452e-12
-3.07818e-13
1.07698e-12
2.08126e-12
1.13142e-12
1.16537e-12
4.40536e-13
4.00561e-13
-1.83985e-13
-8.82787e-13
-1.20135e-12
-2.57297e-12
-3.10287e-12
-1.04844e-12
-1.53709e-12
-8.91977e-13
-1.16865e-12
-6.46423e-13
-1.09364e-12
-5.37975e-13
-1.33845e-12
-1.94564e-12
-7.40048e-13
-3.76075e-13
9.1811e-13
1.10105e-12
1.58634e-12
2.22868e-12
1.50546e-12
-2.11207e-13
7.17888e-13
1.47223e-12
2.81352e-13
-8.97802e-13
-1.84522e-12
-3.69482e-13
5.84158e-13
3.55272e-13
1.07451e-12
5.47946e-13
1.78989e-12
1.88656e-12
2.26249e-12
1.26094e-12
8.94044e-13
7.01563e-13
4.80569e-13
4.94548e-13
-1.67534e-13
-7.91548e-13
-1.21268e-12
-1.51214e-12
-2.92672e-12
-1.32218e-12
-6.53487e-13
-7.54342e-13
1.13686e-13
1.49892e-13
4.26328e-14
-7.10545e-14
9.68352e-13
1.15713e-12
3.281e-13
-5.68429e-14
9.65815e-13
1.35993e-12
2.43655e-12
2.0508e-12
-8.54889e-14
-1.35388e-12
-1.19067e-12
5.72627e-13
4.40537e-13
-4.40536e-13
-6.46048e-13
-5.46437e-13
1.57548e-14
-8.32454e-15
1.61837e-13
7.44792e-13
5.06531e-13
7.26238e-13
1.22677e-12
4.55128e-13
8.7259e-13
4.20857e-13
9.94756e-14
-2.05859e-12
-1.30857e-12
-1.12022e-12
-1.20446e-12
-5.19155e-13
4.54747e-13
1.31546e-13
1.09387e-13
-4.59887e-13
-7.79996e-13
-1.13687e-13
-5.31879e-13
-2.49403e-12
-3.38773e-12
-3.37485e-12
-3.65041e-12
-2.21522e-12
-1.5795e-12
-1.52665e-12
-1.05208e-12
-9.02708e-13
-9.22416e-13
-8.04929e-13
-1.23968e-12
-9.94304e-13
-1.33102e-12
1.57148e-13
-3.2685e-13
-9.66841e-13
-7.4876e-13
-8.82727e-13
-1.4089e-12
-3.57556e-13
-8.99214e-13
-7.13468e-13
1.35347e-13
8.46513e-13
1.21015e-12
6.45478e-13
3.97521e-13
9.8975e-13
9.07295e-13
8.23498e-14
-2.53874e-13
-9.78576e-13
-7.74403e-13
-1.15351e-12
-2.28953e-12
-2.34168e-12
-1.81303e-12
-4.64256e-13
3.07956e-13
1.68904e-12
2.35277e-12
2.83764e-12
2.47347e-12
1.20463e-12
1.22219e-12
1.48502e-12
2.02709e-12
1.49301e-12
1.06746e-12
6.29963e-13
9.77821e-13
-1.84741e-13
-7.10088e-14
3.4106e-13
-5.58741e-13
-6.51266e-13
-3.70035e-13
1.35024e-12
2.45124e-12
3.78928e-12
7.12985e-12
1.32386e-11
2.39321e-11
4.35245e-11
7.90499e-11
1.43681e-10
2.59236e-10
4.7067e-10
8.5095e-10
1.52535e-09
2.72194e-09
4.82771e-09
8.51076e-09
1.49167e-08
2.59894e-08
4.50091e-08
7.74825e-08
1.3258e-07
2.25473e-07
3.81086e-07
6.40087e-07
1.06836e-06
1.77186e-06
2.91978e-06
4.78023e-06
7.77494e-06
1.25622e-05
2.01614e-05
3.21394e-05
5.08841e-05
8.00061e-05
0.000124919
0.000193672
0.000298128
0.000455622
0.000691256
0.00104105
0.0015562
0.00230882
0.00339942
0.00496682
0.00720068
0.0103575
0.0147804
0.0209233
0.0293803
0.0409192
0.0565208
0.0774228
0.105166
0.141646
0.189158
0.250445
0.328738
0.427781
0.551841
0.705706
0.894648
1.12436
1.40088
1.73046
2.11942
2.57402
3.10022
3.70354
4.38888
5.16034
6.02106
6.97315
8.01758
9.15419
10.3817
11.6976
13.0986
14.5804
16.1381
17.766
19.4584
21.209
23.0117
24.8604
26.7493
28.6727
30.6256
32.6033
34.6017
36.617
38.6462
40.6866
42.7359
44.7923
46.8544
48.921
50.9911
53.0642
55.1398
57.2175
59.297
61.3783
63.4613
65.546
67.6324
69.7207
71.8108
73.903
75.9974
78.0941
80.1932
82.295
84.3997
86.5074
88.6182
90.7325
92.8503
94.9719
97.0974
99.2271
101.361
103.5
105.643
107.791
109.944
112.102
114.266
116.435
118.61
120.791
122.978
125.171
127.37
129.576
131.788
134.007
136.233
138.465
140.704
142.951
145.204
147.465
149.732
152.007
154.289
156.579
158.876
161.18
163.492
165.812
168.139
170.475
172.818
175.138
177.464
179.796
182.134
184.479
186.83
189.188
191.552
193.923
196.301
198.685
201.076
203.474
205.879
208.291
210.71
213.136
215.568
218.008
220.455
222.909
225.37
227.839
230.314
232.796
235.285
237.781
240.284
242.793
245.31
247.833
250.363
252.9
255.444
257.994
260.551
263.115
265.685
268.263
270.847
273.437
276.034
278.638
281.249
283.866
286.489
289.119
291.755
294.398
297.047
299.703
302.363
305.03
307.699
310.376
313.06
315.751
318.447
321.148
323.852
326.56
329.275
331.995
334.718
337.445
340.177
342.912
345.651
348.393
351.138
353.885
356.636
359.388
362.143
364.899
367.655
370.413
373.17
375.926
378.682
381.436
384.188
386.938
389.684
392.426
395.164
397.895
400.619
403.337
406.045
408.744
411.432
414.107
416.769
419.416
422.046
424.535
427.272
430.624
)
;

boundaryField
{
    sideLeft
    {
        type            symmetryPlane;
        value           uniform 0;
    }
    sideRight
    {
        type            calculated;
        value           uniform 434.219;
    }
    topbottom
    {
        type            empty;
        value           nonuniform 0();
    }
    frontback
    {
        type            empty;
        value           nonuniform 0();
    }
}


// ************************************************************************* //
