/*--------------------------------*- C++ -*----------------------------------*\
| =========                 |                                                 |
| \\      /  F ield         | OpenFOAM: The Open Source CFD Toolbox           |
|  \\    /   O peration     | Version:  2.4.0                                 |
|   \\  /    A nd           | Web:      www.OpenFOAM.org                      |
|    \\/     M anipulation  |                                                 |
\*---------------------------------------------------------------------------*/
FoamFile
{
    version     2.0;
    format      ascii;
    class       volVectorField;
    location    "0.06";
    object      U.air;
}
// * * * * * * * * * * * * * * * * * * * * * * * * * * * * * * * * * * * * * //

dimensions      [0 1 -1 0 0 0 0];

internalField   nonuniform List<vector> 
1000
(
(-1.8474e-13 0 0)
(-2.70007e-13 0 0)
(-5.68434e-13 0 0)
(-5.11591e-13 0 0)
(-1.98952e-13 0 0)
(1.56319e-13 0 0)
(4.19221e-13 0 0)
(3.76588e-13 0 0)
(8.13149e-20 0 0)
(-6.3949e-14 0 0)
(-2.27374e-13 0 0)
(-3.97904e-13 0 0)
(-2.13166e-14 0 0)
(-1.35003e-13 0 0)
(2.13159e-14 0 0)
(4.26329e-14 0 0)
(-1.13687e-13 0 0)
(-2.98428e-13 0 0)
(7.10504e-15 0 0)
(-3.19744e-13 0 0)
(-2.70007e-13 0 0)
(-2.55795e-13 0 0)
(-3.83693e-13 0 0)
(-2.62901e-13 0 0)
(-2.84217e-13 0 0)
(-2.06057e-13 0 0)
(-2.20268e-13 0 0)
(-1.13687e-13 0 0)
(-5.6843e-14 0 0)
(4.40536e-13 0 0)
(5.61329e-13 0 0)
(7.10543e-13 0 0)
(7.38964e-13 0 0)
(5.82645e-13 0 0)
(4.54747e-13 0 0)
(1.49215e-13 0 0)
(4.47641e-13 0 0)
(4.62094e-19 0 0)
(-2.84221e-14 0 0)
(-6.39484e-14 0 0)
(-2.55796e-13 0 0)
(-2.55795e-13 0 0)
(-2.20268e-13 0 0)
(-4.83169e-13 0 0)
(-4.76064e-13 0 0)
(-3.2685e-13 0 0)
(-1.56319e-13 0 0)
(-5.68435e-14 0 0)
(-6.39488e-14 0 0)
(-5.68436e-14 0 0)
(7.81601e-14 0 0)
(2.91322e-13 0 0)
(8.52655e-14 0 0)
(2.1316e-14 0 0)
(6.3949e-14 0 0)
(4.1922e-13 0 0)
(4.83169e-13 0 0)
(4.33431e-13 0 0)
(3.33955e-13 0 0)
(1.35003e-13 0 0)
(2.13165e-14 0 0)
(-2.4869e-13 0 0)
(-4.40536e-13 0 0)
(-2.06057e-13 0 0)
(-1.63425e-13 0 0)
(-3.48166e-13 0 0)
(-5.04485e-13 0 0)
(-1.91847e-13 0 0)
(9.94761e-14 0 0)
(-4.26329e-14 0 0)
(-6.39486e-14 0 0)
(-1.42111e-14 0 0)
(-9.94756e-14 0 0)
(-2.4869e-13 0 0)
(-4.68958e-13 0 0)
(-6.60805e-13 0 0)
(-7.74492e-13 0 0)
(-9.23705e-13 0 0)
(-8.73968e-13 0 0)
(-9.02389e-13 0 0)
(-9.66338e-13 0 0)
(-8.2423e-13 0 0)
(-6.39488e-13 0 0)
(-5.61329e-13 0 0)
(-5.25801e-13 0 0)
(-2.55796e-13 0 0)
(-3.62377e-13 0 0)
(-1.70531e-13 0 0)
(-2.41584e-13 0 0)
(-1.06581e-13 0 0)
(1.42106e-14 0 0)
(-1.91847e-13 0 0)
(-3.33955e-13 0 0)
(-4.40537e-13 0 0)
(-5.8975e-13 0 0)
(-5.54224e-13 0 0)
(-7.17648e-13 0 0)
(-5.7554e-13 0 0)
(-6.03961e-13 0 0)
(-2.70006e-13 0 0)
(-2.55795e-13 0 0)
(-4.26326e-13 0 0)
(-1.63425e-13 0 0)
(-9.94761e-14 0 0)
(9.23705e-14 0 0)
(2.62901e-13 0 0)
(2.62901e-13 0 0)
(1.13687e-13 0 0)
(-6.39487e-14 0 0)
(1.84741e-13 0 0)
(2.41585e-13 0 0)
(3.05533e-13 0 0)
(3.2685e-13 0 0)
(2.20268e-13 0 0)
(2.41585e-13 0 0)
(2.13163e-13 0 0)
(-7.10542e-14 0 0)
(1.63425e-13 0 0)
(2.34479e-13 0 0)
(7.10543e-14 0 0)
(3.76588e-13 0 0)
(1.56319e-13 0 0)
(-2.84217e-14 0 0)
(-1.49214e-13 0 0)
(-2.84217e-13 0 0)
(-4.54747e-13 0 0)
(-3.33955e-13 0 0)
(-1.42108e-13 0 0)
(-1.84742e-13 0 0)
(-1.98951e-13 0 0)
(1.20792e-13 0 0)
(-8.52646e-14 0 0)
(-1.77636e-13 0 0)
(-2.91322e-13 0 0)
(1.63425e-13 0 0)
(1.35003e-13 0 0)
(-1.35003e-13 0 0)
(-1.56319e-13 0 0)
(-1.5632e-13 0 0)
(-6.39488e-14 0 0)
(-1.42108e-14 0 0)
(2.13161e-14 0 0)
(-2.20268e-13 0 0)
(-1.91847e-13 0 0)
(-2.77111e-13 0 0)
(-4.0501e-13 0 0)
(-3.19744e-13 0 0)
(-3.4106e-13 0 0)
(-7.24754e-13 0 0)
(-8.2423e-13 0 0)
(-4.05009e-13 0 0)
(-3.05533e-13 0 0)
(-1.42109e-13 0 0)
(-1.98952e-13 0 0)
(-3.83693e-13 0 0)
(-2.34479e-13 0 0)
(2.34479e-13 0 0)
(1.98952e-13 0 0)
(7.81597e-14 0 0)
(1.06581e-13 0 0)
(-2.06057e-13 0 0)
(-1.35003e-13 0 0)
(-2.84217e-13 0 0)
(-6.39491e-14 0 0)
(-1.06581e-13 0 0)
(-1.42109e-13 0 0)
(-1.06581e-13 0 0)
(-2.06058e-13 0 0)
(-3.76587e-13 0 0)
(-3.05533e-13 0 0)
(-6.96332e-13 0 0)
(-7.31859e-13 0 0)
(-7.95808e-13 0 0)
(-7.03438e-13 0 0)
(-7.31859e-13 0 0)
(-7.17649e-13 0 0)
(-8.3844e-13 0 0)
(-8.88179e-13 0 0)
(-7.81597e-13 0 0)
(-8.95284e-13 0 0)
(-1.03739e-12 0 0)
(-8.95284e-13 0 0)
(-6.32383e-13 0 0)
(-6.25277e-13 0 0)
(-4.40537e-13 0 0)
(-4.33431e-13 0 0)
(-4.8317e-13 0 0)
(-7.6028e-13 0 0)
(-7.38965e-13 0 0)
(-7.31859e-13 0 0)
(-3.97904e-13 0 0)
(-3.4106e-13 0 0)
(-7.81599e-14 0 0)
(-2.55795e-13 0 0)
(-9.23706e-14 0 0)
(6.39489e-14 0 0)
(1.63425e-13 0 0)
(5.32907e-13 0 0)
(5.47118e-13 0 0)
(5.04485e-13 0 0)
(6.75015e-13 0 0)
(3.62377e-13 0 0)
(3.26849e-13 0 0)
(4.1922e-13 0 0)
(3.97904e-13 0 0)
(3.62377e-13 0 0)
(2.70006e-13 0 0)
(4.33431e-13 0 0)
(4.61853e-13 0 0)
(5.47118e-13 0 0)
(5.04485e-13 0 0)
(2.55795e-13 0 0)
(9.23708e-14 0 0)
(1.56319e-13 0 0)
(2.20268e-13 0 0)
(3.83693e-13 0 0)
(3.48166e-13 0 0)
(1.49214e-13 0 0)
(2.20268e-13 0 0)
(3.2685e-13 0 0)
(5.61329e-13 0 0)
(4.12115e-13 0 0)
(3.4106e-13 0 0)
(3.62377e-13 0 0)
(2.77112e-13 0 0)
(3.97904e-13 0 0)
(4.68958e-13 0 0)
(4.9738e-13 0 0)
(6.82121e-13 0 0)
(3.69482e-13 0 0)
(1.27898e-13 0 0)
(-7.10542e-14 0 0)
(1.27898e-13 0 0)
(3.05533e-13 0 0)
(3.05534e-13 0 0)
(3.12639e-13 0 0)
(2.62901e-13 0 0)
(6.96332e-13 0 0)
(4.26326e-13 0 0)
(9.23707e-14 0 0)
(-2.13164e-14 0 0)
(-2.3647e-19 0 0)
(-4.05009e-13 0 0)
(-3.55272e-13 0 0)
(-3.33955e-13 0 0)
(2.13163e-13 0 0)
(5.82645e-13 0 0)
(3.97904e-13 0 0)
(3.05534e-13 0 0)
(3.55271e-13 0 0)
(3.97904e-13 0 0)
(3.33955e-13 0 0)
(7.10543e-14 0 0)
(-2.27374e-13 0 0)
(6.39486e-14 0 0)
(-1.56319e-13 0 0)
(-4.26327e-14 0 0)
(3.83693e-13 0 0)
(4.83169e-13 0 0)
(5.40013e-13 0 0)
(3.33955e-13 0 0)
(2.41585e-13 0 0)
(7.10512e-15 0 0)
(-5.68433e-14 0 0)
(-1.13687e-13 0 0)
(-2.06058e-13 0 0)
(-1.27897e-13 0 0)
(1.49213e-13 0 0)
(1.5632e-13 0 0)
(1.35003e-13 0 0)
(4.26328e-14 0 0)
(-2.06058e-13 0 0)
(-4.68958e-13 0 0)
(-5.82645e-13 0 0)
(-6.60805e-13 0 0)
(-3.62377e-13 0 0)
(-3.05533e-13 0 0)
(7.10487e-15 0 0)
(-2.20268e-13 0 0)
(-2.77112e-13 0 0)
(-2.77112e-13 0 0)
(-3.90799e-13 0 0)
(-5.40013e-13 0 0)
(-7.31858e-13 0 0)
(-4.90275e-13 0 0)
(-3.33955e-13 0 0)
(-1.84741e-13 0 0)
(-1.91846e-13 0 0)
(9.23704e-14 0 0)
(1.27898e-13 0 0)
(1.42108e-13 0 0)
(1.56319e-13 0 0)
(-4.26327e-14 0 0)
(2.13165e-14 0 0)
(1.84741e-13 0 0)
(5.68435e-14 0 0)
(7.10546e-14 0 0)
(-1.70531e-13 0 0)
(-2.20268e-13 0 0)
(-2.20268e-13 0 0)
(7.10541e-14 0 0)
(7.10552e-15 0 0)
(-2.55795e-13 0 0)
(-2.13163e-13 0 0)
(-5.04485e-13 0 0)
(-4.54748e-13 0 0)
(-2.91322e-13 0 0)
(-3.55272e-13 0 0)
(-4.12115e-13 0 0)
(-3.05533e-13 0 0)
(-1.63425e-13 0 0)
(-3.19744e-13 0 0)
(-3.05533e-13 0 0)
(-2.41584e-13 0 0)
(-1.49214e-13 0 0)
(-1.13687e-13 0 0)
(-2.13164e-14 0 0)
(7.81597e-14 0 0)
(2.70006e-13 0 0)
(7.17648e-13 0 0)
(8.2423e-13 0 0)
(9.52128e-13 0 0)
(8.73967e-13 0 0)
(8.31335e-13 0 0)
(8.81073e-13 0 0)
(8.17124e-13 0 0)
(9.02389e-13 0 0)
(9.166e-13 0 0)
(8.2423e-13 0 0)
(5.32907e-13 0 0)
(4.61853e-13 0 0)
(4.61853e-13 0 0)
(4.83169e-13 0 0)
(2.629e-13 0 0)
(1.42111e-14 0 0)
(1.56319e-13 0 0)
(-7.10536e-15 0 0)
(-2.62901e-13 0 0)
(-1.27898e-13 0 0)
(-2.55795e-13 0 0)
(-1.27898e-13 0 0)
(-6.39488e-14 0 0)
(-7.81599e-14 0 0)
(-1.35003e-13 0 0)
(-5.68438e-14 0 0)
(-2.13162e-13 0 0)
(-7.81602e-14 0 0)
(-7.81591e-14 0 0)
(1.35003e-13 0 0)
(4.47642e-13 0 0)
(2.13163e-13 0 0)
(7.10543e-14 0 0)
(-1.06581e-13 0 0)
(-3.2685e-13 0 0)
(-3.83693e-13 0 0)
(-4.26326e-13 0 0)
(-4.05009e-13 0 0)
(-2.06058e-13 0 0)
(3.05534e-13 0 0)
(3.4106e-13 0 0)
(2.77112e-13 0 0)
(3.55271e-13 0 0)
(5.7554e-13 0 0)
(4.1922e-13 0 0)
(2.62901e-13 0 0)
(3.69482e-13 0 0)
(3.62377e-13 0 0)
(6.25277e-13 0 0)
(4.47642e-13 0 0)
(4.83169e-13 0 0)
(6.03961e-13 0 0)
(7.10543e-13 0 0)
(5.04486e-13 0 0)
(5.32907e-13 0 0)
(4.68959e-13 0 0)
(2.84217e-13 0 0)
(1.06582e-13 0 0)
(1.13687e-13 0 0)
(-2.27373e-13 0 0)
(-4.97384e-14 0 0)
(2.06058e-13 0 0)
(2.70006e-13 0 0)
(-1.56319e-13 0 0)
(-3.12639e-13 0 0)
(-4.97383e-14 0 0)
(-4.26319e-14 0 0)
(-4.97387e-14 0 0)
(-4.83169e-13 0 0)
(-2.48691e-13 0 0)
(2.13168e-14 0 0)
(2.4869e-13 0 0)
(-3.55271e-14 0 0)
(-1.35003e-13 0 0)
(-1.42106e-14 0 0)
(7.81594e-14 0 0)
(-4.26324e-14 0 0)
(1.77636e-13 0 0)
(2.41585e-13 0 0)
(-2.91113e-19 0 0)
(4.26326e-14 0 0)
(6.39487e-14 0 0)
(-1.7053e-13 0 0)
(-1.20792e-13 0 0)
(-1.35003e-13 0 0)
(-9.23705e-14 0 0)
(-3.05533e-13 0 0)
(-5.11591e-13 0 0)
(-4.05009e-13 0 0)
(-3.19744e-13 0 0)
(-5.68435e-14 0 0)
(-3.2685e-13 0 0)
(-2.84217e-13 0 0)
(-7.81595e-14 0 0)
(5.68433e-14 0 0)
(-2.06058e-13 0 0)
(-1.42108e-13 0 0)
(1.84741e-13 0 0)
(2.27373e-13 0 0)
(1.20793e-13 0 0)
(3.48165e-13 0 0)
(1.49214e-13 0 0)
(2.34479e-13 0 0)
(2.27374e-13 0 0)
(3.90798e-13 0 0)
(4.76064e-13 0 0)
(3.19744e-13 0 0)
(1.7053e-13 0 0)
(3.12639e-13 0 0)
(6.96332e-13 0 0)
(5.68434e-13 0 0)
(5.82645e-13 0 0)
(5.11591e-13 0 0)
(2.77112e-13 0 0)
(2.06057e-13 0 0)
(5.04485e-13 0 0)
(7.38965e-13 0 0)
(6.39488e-13 0 0)
(5.11591e-13 0 0)
(5.82645e-13 0 0)
(5.32908e-13 0 0)
(4.05009e-13 0 0)
(-4.26322e-14 0 0)
(2.13163e-14 0 0)
(7.81597e-14 0 0)
(-5.68434e-14 0 0)
(-2.84218e-14 0 0)
(-8.52649e-14 0 0)
(-4.0501e-13 0 0)
(-2.84217e-13 0 0)
(-2.55796e-13 0 0)
(-5.7554e-13 0 0)
(-4.05009e-13 0 0)
(-3.76588e-13 0 0)
(-1.77636e-13 0 0)
(-2.27373e-13 0 0)
(-4.47642e-13 0 0)
(-3.19744e-13 0 0)
(-4.54747e-13 0 0)
(-3.83693e-13 0 0)
(-5.04485e-13 0 0)
(-5.11591e-13 0 0)
(-6.11066e-13 0 0)
(-3.05534e-13 0 0)
(-3.19744e-13 0 0)
(-2.20269e-13 0 0)
(-1.06581e-13 0 0)
(-7.10556e-15 0 0)
(-1.56319e-13 0 0)
(-6.39491e-14 0 0)
(-2.13163e-13 0 0)
(-3.69482e-13 0 0)
(-4.54747e-13 0 0)
(-7.03438e-13 0 0)
(-7.03437e-13 0 0)
(-7.88702e-13 0 0)
(-8.17124e-13 0 0)
(-7.31859e-13 0 0)
(-5.89751e-13 0 0)
(-5.68434e-13 0 0)
(-4.76064e-13 0 0)
(-3.12639e-13 0 0)
(-1.27898e-13 0 0)
(-1.56319e-13 0 0)
(-9.94762e-14 0 0)
(-3.90798e-13 0 0)
(-2.77112e-13 0 0)
(-2.55795e-13 0 0)
(-1.91847e-13 0 0)
(7.10564e-15 0 0)
(-7.10557e-15 0 0)
(-1.98952e-13 0 0)
(-2.84217e-13 0 0)
(-1.56319e-13 0 0)
(-2.13162e-14 0 0)
(-2.20268e-13 0 0)
(-3.62377e-13 0 0)
(-3.05533e-13 0 0)
(-2.91322e-13 0 0)
(7.81598e-14 0 0)
(-2.60334e-20 0 0)
(-7.10559e-15 0 0)
(-1.06581e-13 0 0)
(-3.5527e-14 0 0)
(1.35003e-13 0 0)
(4.97382e-14 0 0)
(4.12114e-13 0 0)
(3.90799e-13 0 0)
(6.82121e-13 0 0)
(6.75016e-13 0 0)
(8.95283e-13 0 0)
(7.74492e-13 0 0)
(7.38964e-13 0 0)
(9.52127e-13 0 0)
(1.1795e-12 0 0)
(1.18661e-12 0 0)
(1.22924e-12 0 0)
(1.14397e-12 0 0)
(8.59757e-13 0 0)
(7.4607e-13 0 0)
(8.02913e-13 0 0)
(8.3844e-13 0 0)
(6.18172e-13 0 0)
(5.75539e-13 0 0)
(1.77636e-13 0 0)
(3.76588e-13 0 0)
(2.98428e-13 0 0)
(2.13163e-13 0 0)
(1.77636e-13 0 0)
(5.47118e-13 0 0)
(4.76064e-13 0 0)
(5.54223e-13 0 0)
(4.0501e-13 0 0)
(4.97378e-14 0 0)
(3.55274e-14 0 0)
(-7.81599e-14 0 0)
(-1.63425e-13 0 0)
(-3.90799e-13 0 0)
(-1.77636e-13 0 0)
(-1.13687e-13 0 0)
(-1.42109e-13 0 0)
(-2.13163e-13 0 0)
(-7.81599e-14 0 0)
(-4.97377e-14 0 0)
(-2.13165e-14 0 0)
(-1.63425e-13 0 0)
(-1.98952e-13 0 0)
(-2.4869e-13 0 0)
(-2.62901e-13 0 0)
(1.20792e-13 0 0)
(1.06582e-13 0 0)
(4.1922e-13 0 0)
(3.69482e-13 0 0)
(-2.13163e-14 0 0)
(-3.48166e-13 0 0)
(-3.69482e-13 0 0)
(-3.97904e-13 0 0)
(-4.12115e-13 0 0)
(-4.05009e-13 0 0)
(-2.27374e-13 0 0)
(-1.27898e-13 0 0)
(-2.34479e-13 0 0)
(1.42106e-14 0 0)
(3.55273e-14 0 0)
(1.7053e-13 0 0)
(9.9476e-14 0 0)
(1.13687e-13 0 0)
(3.62376e-13 0 0)
(1.5632e-13 0 0)
(4.54747e-13 0 0)
(2.06058e-13 0 0)
(3.4106e-13 0 0)
(3.90799e-13 0 0)
(2.06057e-13 0 0)
(1.35003e-13 0 0)
(3.19744e-13 0 0)
(2.77112e-13 0 0)
(9.23705e-14 0 0)
(-7.10553e-15 0 0)
(-4.97378e-14 0 0)
(-7.81599e-14 0 0)
(-4.90274e-13 0 0)
(-4.05009e-13 0 0)
(-4.40536e-13 0 0)
(-3.2685e-13 0 0)
(-5.96856e-13 0 0)
(-6.96332e-13 0 0)
(-8.59756e-13 0 0)
(-9.166e-13 0 0)
(-1.07292e-12 0 0)
(-7.88703e-13 0 0)
(-5.47118e-13 0 0)
(-1.27898e-13 0 0)
(7.10574e-15 0 0)
(5.11591e-13 0 0)
(3.83693e-13 0 0)
(2.41585e-13 0 0)
(1.77636e-13 0 0)
(7.81596e-14 0 0)
(7.81596e-14 0 0)
(-2.20268e-13 0 0)
(-1.84741e-13 0 0)
(-4.90274e-13 0 0)
(-7.17648e-13 0 0)
(-5.11591e-13 0 0)
(-3.19744e-13 0 0)
(-2.4869e-13 0 0)
(-2.20269e-13 0 0)
(-1.98952e-13 0 0)
(-2.4869e-13 0 0)
(-2.4869e-13 0 0)
(-9.23707e-14 0 0)
(-4.05009e-13 0 0)
(-4.47642e-13 0 0)
(-1.63425e-13 0 0)
(8.52653e-14 0 0)
(2.84217e-13 0 0)
(2.98429e-13 0 0)
(5.47117e-13 0 0)
(4.54748e-13 0 0)
(9.23705e-14 0 0)
(1.42111e-14 0 0)
(2.34479e-13 0 0)
(2.70006e-13 0 0)
(-1.4211e-14 0 0)
(-4.47642e-13 0 0)
(-2.84217e-13 0 0)
(1.35003e-13 0 0)
(8.52651e-14 0 0)
(9.94761e-14 0 0)
(2.27374e-13 0 0)
(1.98952e-13 0 0)
(5.40013e-13 0 0)
(4.90274e-13 0 0)
(4.40537e-13 0 0)
(3.19744e-13 0 0)
(4.26334e-14 0 0)
(2.20267e-13 0 0)
(1.06582e-13 0 0)
(9.23703e-14 0 0)
(-1.56319e-13 0 0)
(-2.34479e-13 0 0)
(-3.62376e-13 0 0)
(-5.54224e-13 0 0)
(-5.47118e-13 0 0)
(-2.41585e-13 0 0)
(-1.98952e-13 0 0)
(4.97376e-14 0 0)
(-4.26325e-14 0 0)
(1.4211e-14 0 0)
(-5.09512e-20 0 0)
(5.68434e-14 0 0)
(3.48166e-13 0 0)
(1.42109e-13 0 0)
(-2.84218e-14 0 0)
(3.55275e-14 0 0)
(3.55271e-13 0 0)
(3.97905e-13 0 0)
(6.18171e-13 0 0)
(2.27374e-13 0 0)
(-2.13163e-13 0 0)
(-4.26325e-13 0 0)
(5.68428e-14 0 0)
(5.68437e-14 0 0)
(9.23704e-14 0 0)
(-1.98952e-13 0 0)
(-9.23708e-14 0 0)
(-9.94759e-14 0 0)
(-7.10536e-15 0 0)
(1.42109e-14 0 0)
(1.27897e-13 0 0)
(1.20792e-13 0 0)
(1.49214e-13 0 0)
(2.62901e-13 0 0)
(1.98952e-13 0 0)
(1.27898e-13 0 0)
(1.42109e-13 0 0)
(1.63425e-13 0 0)
(-2.91323e-13 0 0)
(-3.69482e-13 0 0)
(-3.69482e-13 0 0)
(-2.41585e-13 0 0)
(-2.20268e-13 0 0)
(-1.42109e-14 0 0)
(9.23706e-14 0 0)
(1.27897e-13 0 0)
(-1.35003e-13 0 0)
(-5.68439e-14 0 0)
(-1.56319e-13 0 0)
(4.26319e-14 0 0)
(-3.69482e-13 0 0)
(-7.24754e-13 0 0)
(-8.66862e-13 0 0)
(-9.30811e-13 0 0)
(-7.10543e-13 0 0)
(-4.90275e-13 0 0)
(-3.12639e-13 0 0)
(-3.05533e-13 0 0)
(-2.20268e-13 0 0)
(-1.84741e-13 0 0)
(-2.98428e-13 0 0)
(-1.63425e-13 0 0)
(-2.4869e-13 0 0)
(-3.33955e-13 0 0)
(-1.49214e-13 0 0)
(2.84217e-14 0 0)
(-1.27898e-13 0 0)
(-1.77635e-13 0 0)
(-2.06058e-13 0 0)
(-3.19744e-13 0 0)
(-1.13687e-13 0 0)
(-2.41584e-13 0 0)
(-2.06058e-13 0 0)
(-1.42109e-14 0 0)
(4.26328e-14 0 0)
(2.84217e-13 0 0)
(1.98952e-13 0 0)
(1.91846e-13 0 0)
(1.06582e-13 0 0)
(3.05533e-13 0 0)
(7.10549e-14 0 0)
(3.55267e-14 0 0)
(-2.34479e-13 0 0)
(-1.91847e-13 0 0)
(-2.4869e-13 0 0)
(-4.68958e-13 0 0)
(-5.7554e-13 0 0)
(-4.9738e-13 0 0)
(-2.34479e-13 0 0)
(-1.7053e-13 0 0)
(3.2685e-13 0 0)
(4.54747e-13 0 0)
(6.6791e-13 0 0)
(6.53699e-13 0 0)
(4.40536e-13 0 0)
(2.84217e-13 0 0)
(3.69482e-13 0 0)
(3.26849e-13 0 0)
(4.76064e-13 0 0)
(4.1922e-13 0 0)
(6.39487e-14 0 0)
(1.20792e-13 0 0)
(2.34479e-13 0 0)
(-1.35003e-13 0 0)
(7.10539e-14 0 0)
(2.84218e-14 0 0)
(-1.27897e-13 0 0)
(-1.77636e-13 0 0)
(1.20793e-13 0 0)
(5.61328e-13 0 0)
(6.46594e-13 0 0)
(1.3145e-12 0 0)
(2.50822e-12 0 0)
(4.55458e-12 0 0)
(8.22098e-12 0 0)
(1.5028e-11 0 0)
(2.72493e-11 0 0)
(4.92904e-11 0 0)
(8.93081e-11 0 0)
(1.61833e-10 0 0)
(2.91109e-10 0 0)
(5.20622e-10 0 0)
(9.25944e-10 0 0)
(1.63672e-09 0 0)
(2.87594e-09 0 0)
(5.02399e-09 0 0)
(8.72383e-09 0 0)
(1.5058e-08 0 0)
(2.5835e-08 0 0)
(4.4056e-08 0 0)
(7.46667e-08 0 0)
(1.25762e-07 0 0)
(2.10496e-07 0 0)
(3.50096e-07 0 0)
(5.78563e-07 0 0)
(9.49962e-07 0 0)
(1.54962e-06 0 0)
(2.51117e-06 0 0)
(4.04234e-06 0 0)
(6.46343e-06 0 0)
(1.02644e-05 0 0)
(1.6189e-05 0 0)
(2.53562e-05 0 0)
(3.94363e-05 0 0)
(6.09007e-05 0 0)
(9.33752e-05 0 0)
(0.000142131 0 0)
(0.000214763 0 0)
(0.000322115 0 0)
(0.000479521 0 0)
(0.000708458 0 0)
(0.00103871 0 0)
(0.00151118 0 0)
(0.00218143 0 0)
(0.00312417 0 0)
(0.00443874 0 0)
(0.00625579 0 0)
(0.00874516 0 0)
(0.012125 0 0)
(0.0166722 0 0)
(0.0227335 0 0)
(0.030738 0 0)
(0.041209 0 0)
(0.0547761 0 0)
(0.0721857 0 0)
(0.0943092 0 0)
(0.122148 0 0)
(0.156835 0 0)
(0.199628 0 0)
(0.251898 0 0)
(0.315112 0 0)
(0.390807 0 0)
(0.480558 0 0)
(0.585937 0 0)
(0.708473 0 0)
(0.849604 0 0)
(1.01063 0 0)
(1.19269 0 0)
(1.39667 0 0)
(1.62323 0 0)
(1.87277 0 0)
(2.14539 0 0)
(2.44088 0 0)
(2.7588 0 0)
(3.09841 0 0)
(3.45876 0 0)
(3.8387 0 0)
(4.2369 0 0)
(4.65195 0 0)
(5.08232 0 0)
(5.52648 0 0)
(5.98291 0 0)
(6.4501 0 0)
(6.92663 0 0)
(7.41116 0 0)
(7.90248 0 0)
(8.39948 0 0)
(8.90119 0 0)
(9.40675 0 0)
(9.91543 0 0)
(10.4266 0 0)
(10.9398 0 0)
(11.4546 0 0)
(11.9707 0 0)
(12.4878 0 0)
(13.0057 0 0)
(13.5243 0 0)
(14.0434 0 0)
(14.563 0 0)
(15.0831 0 0)
(15.6037 0 0)
(16.1246 0 0)
(16.646 0 0)
(17.1678 0 0)
(17.6901 0 0)
(18.2129 0 0)
(18.7362 0 0)
(19.2601 0 0)
(19.7846 0 0)
(20.3097 0 0)
(20.8355 0 0)
(21.362 0 0)
(21.8894 0 0)
(22.4175 0 0)
(22.9465 0 0)
(23.4764 0 0)
(24.0073 0 0)
(24.5392 0 0)
(25.0721 0 0)
(25.6062 0 0)
(26.1414 0 0)
(26.6778 0 0)
(27.2154 0 0)
(27.7544 0 0)
(28.2946 0 0)
(28.8362 0 0)
(29.3793 0 0)
(29.9237 0 0)
(30.4697 0 0)
(31.0172 0 0)
(31.5662 0 0)
(32.1168 0 0)
(32.669 0 0)
(33.2229 0 0)
(33.7785 0 0)
(34.3357 0 0)
(34.8947 0 0)
(35.4555 0 0)
(36.0178 0 0)
(36.5824 0 0)
(37.1477 0 0)
(37.7168 0 0)
(38.2843 0 0)
(38.8588 0 0)
(39.428 0 0)
(40.0082 0 0)
(40.5797 0 0)
(41.1637 0 0)
(41.7398 0 0)
(42.3254 0 0)
(42.9052 0 0)
(43.4918 0 0)
(44.076 0 0)
(44.6593 0 0)
(45.2419 0 0)
(45.8248 0 0)
(46.4109 0 0)
(47.0003 0 0)
(47.5913 0 0)
(48.1833 0 0)
(48.7766 0 0)
(49.3718 0 0)
(49.9688 0 0)
(50.5675 0 0)
(51.1679 0 0)
(51.7699 0 0)
(52.3738 0 0)
(52.9793 0 0)
(53.5867 0 0)
(54.1958 0 0)
(54.8066 0 0)
(55.4192 0 0)
(56.0336 0 0)
(56.6498 0 0)
(57.2677 0 0)
(57.8874 0 0)
(58.5088 0 0)
(59.1319 0 0)
(59.7567 0 0)
(60.3833 0 0)
(61.0116 0 0)
(61.6416 0 0)
(62.2732 0 0)
(62.9066 0 0)
(63.5417 0 0)
(64.1784 0 0)
(64.8169 0 0)
(65.4569 0 0)
(66.099 0 0)
(66.742 0 0)
(67.388 0 0)
(68.0333 0 0)
(68.6843 0 0)
(69.3302 0 0)
(69.9891 0 0)
(70.6311 0 0)
(71.3041 0 0)
(71.9334 0 0)
(72.6322 0 0)
(73.2341 0 0)
(73.9757 0 0)
(74.532 0 0)
(75.3329 0 0)
(75.8317 0 0)
(76.6941 0 0)
(77.1459 0 0)
(78.0427 0 0)
(78.4883 0 0)
(79.3846 0 0)
(79.8363 0 0)
(80.7368 0 0)
(81.1869 0 0)
(82.0914 0 0)
(82.5444 0 0)
(83.4514 0 0)
(83.9051 0 0)
(84.8156 0 0)
(85.2709 0 0)
(86.1835 0 0)
(86.6398 0 0)
(87.5547 0 0)
(88.012 0 0)
(88.9288 0 0)
(89.3869 0 0)
(90.3053 0 0)
(90.7638 0 0)
(91.6832 0 0)
(92.142 0 0)
(93.0618 0 0)
(93.5205 0 0)
(94.44 0 0)
(94.8982 0 0)
(95.8169 0 0)
(96.2743 0 0)
(97.1914 0 0)
(97.6477 0 0)
(98.5606 0 0)
(99.0192 0 0)
(99.922 0 0)
(100.384 0 0)
(101.277 0 0)
(101.74 0 0)
(102.622 0 0)
(103.085 0 0)
(103.953 0 0)
(104.414 0 0)
(105.267 0 0)
(105.722 0 0)
(106.557 0 0)
(107.015 0 0)
(108.679 0 0)
)
;

boundaryField
{
    sideLeft
    {
        type            symmetryPlane;
    }
    sideRight
    {
        type            myWaveTransmissive;
        phi             phi.air;
        rho             rho.air;
        psi             thermo:psi.air;
        gamma           1.4;
        fieldInf        (0 0 0);
        lInf            10;
        value           uniform (108.27 0 0);
    }
    topbottom
    {
        type            empty;
    }
    frontback
    {
        type            empty;
    }
}


// ************************************************************************* //
