/*--------------------------------*- C++ -*----------------------------------*\
| =========                 |                                                 |
| \\      /  F ield         | OpenFOAM: The Open Source CFD Toolbox           |
|  \\    /   O peration     | Version:  2.4.0                                 |
|   \\  /    A nd           | Web:      www.OpenFOAM.org                      |
|    \\/     M anipulation  |                                                 |
\*---------------------------------------------------------------------------*/
FoamFile
{
    version     2.0;
    format      ascii;
    class       volVectorField;
    location    "0.06";
    object      U.airMean;
}
// * * * * * * * * * * * * * * * * * * * * * * * * * * * * * * * * * * * * * //

dimensions      [0 1 -1 0 0 0 0];

internalField   nonuniform List<vector> 
1000
(
(-8.00423e-14 0 0)
(-2.47743e-14 0 0)
(-6.66844e-14 0 0)
(-3.70668e-14 0 0)
(-9.70362e-14 0 0)
(-1.7977e-14 0 0)
(-8.19728e-14 0 0)
(-5.09578e-14 0 0)
(-7.0474e-14 0 0)
(-5.25328e-14 0 0)
(-6.61871e-14 0 0)
(-1.18909e-13 0 0)
(-5.92002e-14 0 0)
(-1.17381e-13 0 0)
(-3.42364e-14 0 0)
(-9.0452e-14 0 0)
(-2.81375e-14 0 0)
(-6.40673e-14 0 0)
(-1.84861e-14 0 0)
(-9.9381e-14 0 0)
(-2.71667e-14 0 0)
(-1.04627e-13 0 0)
(-7.95099e-14 0 0)
(-1.02922e-13 0 0)
(-1.29177e-13 0 0)
(-1.09862e-13 0 0)
(-1.23552e-13 0 0)
(-1.14469e-13 0 0)
(-1.66302e-13 0 0)
(-6.73597e-14 0 0)
(-1.34683e-13 0 0)
(-1.09696e-13 0 0)
(-9.26549e-14 0 0)
(-9.12336e-14 0 0)
(-4.69078e-14 0 0)
(-1.49285e-13 0 0)
(-1.50638e-14 0 0)
(-1.11958e-13 0 0)
(-3.5326e-14 0 0)
(-1.06652e-13 0 0)
(-1.79533e-14 0 0)
(-9.08783e-14 0 0)
(-5.6204e-14 0 0)
(-7.26648e-14 0 0)
(-1.38912e-14 0 0)
(-3.08968e-14 0 0)
(-3.55745e-14 0 0)
(-2.25361e-14 0 0)
(-3.62021e-14 0 0)
(-2.18256e-14 0 0)
(-8.17714e-14 0 0)
(8.76214e-16 0 0)
(-4.60194e-14 0 0)
(2.73084e-14 0 0)
(-8.10011e-15 0 0)
(1.01489e-14 0 0)
(4.47049e-14 0 0)
(1.4874e-14 0 0)
(4.9217e-14 0 0)
(6.72173e-14 0 0)
(3.65457e-14 0 0)
(8.75506e-14 0 0)
(6.23857e-14 0 0)
(7.41333e-14 0 0)
(9.40521e-14 0 0)
(9.8955e-14 0 0)
(1.16671e-13 0 0)
(1.00802e-13 0 0)
(7.74019e-14 0 0)
(1.05373e-13 0 0)
(3.34194e-14 0 0)
(6.6554e-14 0 0)
(2.80685e-15 0 0)
(6.43514e-14 0 0)
(1.78346e-14 0 0)
(-1.8545e-14 0 0)
(3.79427e-14 0 0)
(-2.21569e-14 0 0)
(4.31061e-15 0 0)
(1.72899e-14 0 0)
(4.29285e-14 0 0)
(5.81816e-14 0 0)
(4.24313e-14 0 0)
(5.24735e-14 0 0)
(8.63317e-15 0 0)
(1.7124e-14 0 0)
(-3.15598e-14 0 0)
(-3.77782e-15 0 0)
(-5.31723e-14 0 0)
(-7.39792e-14 0 0)
(-2.08427e-14 0 0)
(-3.90798e-14 0 0)
(-5.85013e-14 0 0)
(-1.68873e-14 0 0)
(-3.89733e-14 0 0)
(-3.23317e-15 0 0)
(-7.73542e-14 0 0)
(-1.47558e-14 0 0)
(-7.43345e-14 0 0)
(-5.1621e-14 0 0)
(-9.16599e-14 0 0)
(-8.57507e-14 0 0)
(-1.0381e-13 0 0)
(-9.70247e-14 0 0)
(-1.07837e-13 0 0)
(-1.38011e-13 0 0)
(-9.35076e-14 0 0)
(-1.39515e-13 0 0)
(-1.58321e-13 0 0)
(-1.36223e-13 0 0)
(-1.7162e-13 0 0)
(-1.46194e-13 0 0)
(-1.70447e-13 0 0)
(-1.42855e-13 0 0)
(-1.79448e-13 0 0)
(-1.54543e-13 0 0)
(-1.44572e-13 0 0)
(-1.00566e-13 0 0)
(-1.27081e-13 0 0)
(-1.1512e-13 0 0)
(-1.01051e-13 0 0)
(-7.34228e-14 0 0)
(-6.35817e-14 0 0)
(-6.46475e-14 0 0)
(-4.61616e-14 0 0)
(-6.22909e-14 0 0)
(-3.6818e-14 0 0)
(-7.167e-14 0 0)
(-3.48184e-15 0 0)
(-1.18554e-13 0 0)
(-1.61414e-14 0 0)
(-1.39491e-13 0 0)
(-7.88229e-14 0 0)
(-1.13462e-13 0 0)
(-6.13791e-14 0 0)
(-9.88245e-14 0 0)
(-7.06872e-14 0 0)
(-5.56118e-14 0 0)
(-2.79836e-14 0 0)
(-4.10693e-14 0 0)
(-4.98683e-14 0 0)
(-3.64509e-14 0 0)
(-8.86046e-14 0 0)
(-5.00342e-14 0 0)
(-9.90022e-14 0 0)
(-6.16752e-14 0 0)
(-8.43296e-14 0 0)
(-9.54851e-14 0 0)
(-9.07363e-14 0 0)
(-1.0837e-13 0 0)
(-1.031e-13 0 0)
(-1.03325e-13 0 0)
(-9.63614e-14 0 0)
(-1.03491e-13 0 0)
(-8.8356e-14 0 0)
(-8.87231e-14 0 0)
(-7.23688e-14 0 0)
(-8.58454e-14 0 0)
(-9.53312e-14 0 0)
(-1.10904e-13 0 0)
(-1.38745e-13 0 0)
(-6.7703e-14 0 0)
(-9.66219e-14 0 0)
(-4.54393e-14 0 0)
(-6.83423e-14 0 0)
(-1.94571e-14 0 0)
(-6.05501e-14 0 0)
(-1.73373e-14 0 0)
(-6.98701e-14 0 0)
(-7.00831e-14 0 0)
(-5.43803e-14 0 0)
(-6.11185e-14 0 0)
(-8.75507e-14 0 0)
(-6.82714e-14 0 0)
(-1.17393e-13 0 0)
(-6.06095e-14 0 0)
(-1.13616e-13 0 0)
(-9.24536e-14 0 0)
(-1.44264e-13 0 0)
(-1.40498e-13 0 0)
(-1.27554e-13 0 0)
(-1.09779e-13 0 0)
(-1.01619e-13 0 0)
(-1.67783e-13 0 0)
(-9.34602e-14 0 0)
(-1.56805e-13 0 0)
(-9.29629e-14 0 0)
(-1.89407e-13 0 0)
(-6.81887e-14 0 0)
(-1.49178e-13 0 0)
(-8.45784e-14 0 0)
(-1.05231e-13 0 0)
(-5.41435e-14 0 0)
(-7.53767e-14 0 0)
(-7.15279e-14 0 0)
(-8.31927e-14 0 0)
(-7.18359e-14 0 0)
(-6.50621e-14 0 0)
(-5.99105e-14 0 0)
(-5.10881e-14 0 0)
(-2.27019e-14 0 0)
(-6.13434e-14 0 0)
(-4.97387e-15 0 0)
(-4.53563e-14 0 0)
(-3.75759e-14 0 0)
(-3.48047e-14 0 0)
(5.36443e-15 0 0)
(-2.07951e-14 0 0)
(-3.07546e-14 0 0)
(-1.97175e-14 0 0)
(1.30147e-14 0 0)
(2.01202e-14 0 0)
(-7.69732e-16 0 0)
(6.20777e-14 0 0)
(3.89734e-14 0 0)
(9.09375e-14 0 0)
(5.61448e-14 0 0)
(5.26393e-14 0 0)
(4.99513e-14 0 0)
(9.0227e-14 0 0)
(7.93203e-14 0 0)
(6.9728e-14 0 0)
(9.64088e-14 0 0)
(8.81664e-14 0 0)
(3.84287e-14 0 0)
(1.12526e-13 0 0)
(9.16126e-14 0 0)
(6.35463e-14 0 0)
(1.21337e-13 0 0)
(8.46967e-14 0 0)
(8.19966e-14 0 0)
(5.56118e-14 0 0)
(5.4404e-14 0 0)
(7.50924e-14 0 0)
(6.34634e-14 0 0)
(9.31876e-14 0 0)
(4.51077e-14 0 0)
(6.10238e-14 0 0)
(1.53595e-14 0 0)
(5.06865e-15 0 0)
(3.88429e-14 0 0)
(4.11048e-14 0 0)
(-2.45491e-14 0 0)
(8.00543e-14 0 0)
(1.45673e-15 0 0)
(3.58586e-14 0 0)
(-1.11673e-14 0 0)
(1.69346e-14 0 0)
(-1.00656e-15 0 0)
(4.26561e-14 0 0)
(2.66337e-14 0 0)
(4.9726e-14 0 0)
(1.26003e-14 0 0)
(-6.80929e-15 0 0)
(2.36018e-14 0 0)
(-1.11554e-14 0 0)
(2.90966e-14 0 0)
(-7.56717e-15 0 0)
(3.62019e-14 0 0)
(-5.99813e-14 0 0)
(4.14007e-14 0 0)
(-4.82811e-14 0 0)
(5.67236e-15 0 0)
(-4.09746e-14 0 0)
(-3.83692e-14 0 0)
(-1.11793e-14 0 0)
(-6.63645e-14 0 0)
(2.76281e-14 0 0)
(-3.77416e-14 0 0)
(2.78532e-14 0 0)
(-1.44831e-14 0 0)
(2.09373e-14 0 0)
(-7.80409e-15 0 0)
(5.34095e-15 0 0)
(2.84809e-14 0 0)
(5.14077e-14 0 0)
(2.15178e-14 0 0)
(1.18601e-13 0 0)
(4.41841e-14 0 0)
(9.30218e-14 0 0)
(8.58099e-14 0 0)
(1.25932e-13 0 0)
(1.17737e-13 0 0)
(4.78909e-14 0 0)
(1.69168e-13 0 0)
(1.01643e-13 0 0)
(1.40332e-13 0 0)
(1.12716e-13 0 0)
(1.41824e-13 0 0)
(1.08701e-13 0 0)
(1.33464e-13 0 0)
(1.25517e-13 0 0)
(1.36282e-13 0 0)
(9.39338e-14 0 0)
(1.31569e-13 0 0)
(1.15262e-13 0 0)
(1.10099e-13 0 0)
(1.79234e-13 0 0)
(1.63318e-13 0 0)
(1.31522e-13 0 0)
(1.84552e-13 0 0)
(1.69145e-13 0 0)
(1.70282e-13 0 0)
(2.06199e-13 0 0)
(1.40344e-13 0 0)
(2.09491e-13 0 0)
(1.488e-13 0 0)
(1.78891e-13 0 0)
(1.45164e-13 0 0)
(1.22332e-13 0 0)
(1.22213e-13 0 0)
(9.97721e-14 0 0)
(1.07967e-13 0 0)
(8.97179e-14 0 0)
(1.27862e-13 0 0)
(1.15333e-13 0 0)
(1.33144e-13 0 0)
(1.20354e-13 0 0)
(1.1255e-13 0 0)
(1.50161e-13 0 0)
(1.17311e-13 0 0)
(9.38273e-14 0 0)
(1.23717e-13 0 0)
(7.24163e-14 0 0)
(1.14528e-13 0 0)
(5.67369e-14 0 0)
(4.35208e-14 0 0)
(5.83355e-14 0 0)
(3.40232e-14 0 0)
(2.81967e-14 0 0)
(4.1022e-14 0 0)
(5.20235e-14 0 0)
(1.65321e-14 0 0)
(7.95214e-14 0 0)
(2.25125e-14 0 0)
(5.97802e-14 0 0)
(1.91729e-14 0 0)
(2.14354e-15 0 0)
(2.5319e-14 0 0)
(3.46744e-14 0 0)
(4.70261e-14 0 0)
(3.03875e-14 0 0)
(3.89851e-14 0 0)
(-1.70055e-14 0 0)
(2.88479e-14 0 0)
(-6.69092e-14 0 0)
(1.9291e-14 0 0)
(-8.25411e-14 0 0)
(-1.5042e-15 0 0)
(-6.34632e-14 0 0)
(-6.45884e-14 0 0)
(-6.2054e-14 0 0)
(-6.35936e-14 0 0)
(-6.63172e-14 0 0)
(-2.33059e-14 0 0)
(-2.66928e-14 0 0)
(-7.9474e-14 0 0)
(-3.06719e-14 0 0)
(-7.17647e-14 0 0)
(-4.96433e-14 0 0)
(-5.51026e-14 0 0)
(-7.12083e-14 0 0)
(-1.09104e-13 0 0)
(-9.6693e-14 0 0)
(-6.87333e-14 0 0)
(-7.2203e-14 0 0)
(-1.34802e-13 0 0)
(-9.28799e-14 0 0)
(-1.46916e-13 0 0)
(-1.36815e-13 0 0)
(-1.35643e-13 0 0)
(-1.23078e-13 0 0)
(-1.72863e-13 0 0)
(-1.34435e-13 0 0)
(-1.92995e-13 0 0)
(-1.11354e-13 0 0)
(-1.41955e-13 0 0)
(-1.07683e-13 0 0)
(-1.54732e-13 0 0)
(-9.47037e-14 0 0)
(-1.83959e-13 0 0)
(-1.166e-13 0 0)
(-1.67806e-13 0 0)
(-1.80277e-13 0 0)
(-1.61364e-13 0 0)
(-2.49838e-13 0 0)
(-1.19336e-13 0 0)
(-2.21073e-13 0 0)
(-1.19253e-13 0 0)
(-2.17177e-13 0 0)
(-1.54472e-13 0 0)
(-1.53726e-13 0 0)
(-1.43103e-13 0 0)
(-1.69275e-13 0 0)
(-1.07233e-13 0 0)
(-1.36223e-13 0 0)
(-9.86352e-14 0 0)
(-1.06072e-13 0 0)
(-4.20406e-14 0 0)
(-6.20304e-14 0 0)
(-3.42718e-14 0 0)
(-5.44869e-14 0 0)
(-9.88955e-14 0 0)
(-4.38288e-14 0 0)
(-7.45359e-14 0 0)
(-7.08411e-14 0 0)
(-5.71159e-14 0 0)
(-6.15211e-14 0 0)
(-8.01966e-14 0 0)
(-4.92288e-14 0 0)
(-7.14924e-14 0 0)
(-3.88549e-14 0 0)
(-8.57269e-14 0 0)
(-6.06804e-14 0 0)
(-6.01238e-14 0 0)
(-9.13994e-14 0 0)
(-5.40013e-14 0 0)
(-4.37221e-14 0 0)
(-1.22533e-13 0 0)
(-9.62811e-15 0 0)
(-7.61227e-14 0 0)
(-4.65169e-14 0 0)
(-7.2558e-14 0 0)
(-2.32129e-15 0 0)
(-4.6197e-14 0 0)
(-2.86348e-14 0 0)
(-8.59761e-15 0 0)
(-1.12977e-14 0 0)
(-3.31595e-15 0 0)
(-2.51293e-14 0 0)
(2.40872e-14 0 0)
(-1.0208e-14 0 0)
(-1.49214e-14 0 0)
(2.59939e-14 0 0)
(2.36018e-14 0 0)
(-1.51937e-14 0 0)
(-2.09614e-15 0 0)
(-5.033e-14 0 0)
(-1.55728e-14 0 0)
(-8.3311e-14 0 0)
(1.42462e-14 0 0)
(-6.55238e-14 0 0)
(-3.47692e-14 0 0)
(-3.21876e-14 0 0)
(-3.36797e-14 0 0)
(-2.74744e-14 0 0)
(-4.82102e-14 0 0)
(1.27888e-15 0 0)
(-2.50466e-14 0 0)
(-7.68567e-15 0 0)
(-3.34666e-14 0 0)
(-3.36678e-14 0 0)
(2.97233e-15 0 0)
(-1.4685e-15 0 0)
(-3.43072e-14 0 0)
(1.3666e-14 0 0)
(-1.91017e-14 0 0)
(-4.29167e-14 0 0)
(-9.81742e-15 0 0)
(-7.85385e-14 0 0)
(2.84195e-15 0 0)
(-8.12741e-14 0 0)
(-2.16006e-14 0 0)
(-9.86706e-14 0 0)
(-7.66914e-14 0 0)
(-1.45673e-13 0 0)
(-1.17832e-13 0 0)
(-1.49605e-13 0 0)
(-9.00022e-14 0 0)
(-1.31711e-13 0 0)
(-1.12775e-13 0 0)
(-1.54922e-13 0 0)
(-1.0927e-13 0 0)
(-1.21266e-13 0 0)
(-1.43423e-13 0 0)
(-1.12029e-13 0 0)
(-1.62027e-13 0 0)
(-9.41234e-14 0 0)
(-1.46182e-13 0 0)
(-8.90903e-14 0 0)
(-7.6786e-14 0 0)
(-6.1166e-14 0 0)
(-1.1133e-13 0 0)
(-4.56051e-14 0 0)
(-6.7691e-14 0 0)
(-8.18307e-14 0 0)
(-7.47966e-14 0 0)
(-7.92018e-14 0 0)
(-9.51535e-14 0 0)
(-4.80327e-14 0 0)
(-4.07142e-14 0 0)
(-5.90816e-14 0 0)
(-5.1242e-14 0 0)
(-5.90105e-14 0 0)
(-4.82222e-14 0 0)
(-3.64272e-14 0 0)
(-5.32907e-14 0 0)
(-7.2428e-14 0 0)
(-5.98158e-14 0 0)
(-4.28576e-14 0 0)
(-2.36966e-14 0 0)
(-3.84878e-14 0 0)
(-4.33312e-14 0 0)
(-2.11031e-14 0 0)
(-4.68485e-14 0 0)
(-8.06474e-15 0 0)
(-8.13096e-14 0 0)
(-4.59502e-15 0 0)
(-7.54476e-14 0 0)
(-2.9252e-15 0 0)
(-7.00476e-14 0 0)
(-2.87533e-14 0 0)
(-3.94351e-14 0 0)
(-3.78127e-14 0 0)
(-3.56573e-14 0 0)
(-1.00898e-14 0 0)
(-1.7349e-14 0 0)
(2.47268e-14 0 0)
(2.3211e-14 0 0)
(-9.49755e-15 0 0)
(1.02318e-14 0 0)
(-1.66149e-14 0 0)
(9.26073e-15 0 0)
(-1.30621e-14 0 0)
(2.67519e-14 0 0)
(5.89752e-15 0 0)
(2.71427e-14 0 0)
(4.14498e-15 0 0)
(5.45459e-14 0 0)
(-1.4791e-14 0 0)
(5.84775e-14 0 0)
(-3.76572e-15 0 0)
(3.78955e-14 0 0)
(7.74508e-15 0 0)
(5.00576e-14 0 0)
(2.77942e-14 0 0)
(4.80918e-14 0 0)
(3.47219e-14 0 0)
(1.33583e-14 0 0)
(3.9435e-14 0 0)
(1.18069e-14 0 0)
(2.16596e-14 0 0)
(-2.82794e-14 0 0)
(1.35949e-14 0 0)
(-2.10793e-14 0 0)
(-2.38387e-14 0 0)
(-9.23712e-15 0 0)
(-2.50585e-14 0 0)
(-2.41584e-14 0 0)
(-3.35495e-14 0 0)
(-5.90936e-15 0 0)
(-2.39334e-14 0 0)
(-7.92254e-15 0 0)
(-5.09217e-15 0 0)
(2.90492e-14 0 0)
(1.29083e-14 0 0)
(1.98004e-14 0 0)
(3.01508e-14 0 0)
(7.21791e-14 0 0)
(5.61566e-14 0 0)
(3.55864e-14 0 0)
(9.58877e-14 0 0)
(7.1386e-14 0 0)
(9.98785e-14 0 0)
(6.72884e-14 0 0)
(4.12471e-14 0 0)
(1.13012e-13 0 0)
(7.79347e-14 0 0)
(1.04284e-13 0 0)
(9.80312e-14 0 0)
(1.49818e-13 0 0)
(9.96774e-14 0 0)
(1.12207e-13 0 0)
(8.671e-14 0 0)
(1.27945e-13 0 0)
(1.21917e-13 0 0)
(1.3061e-13 0 0)
(1.37229e-13 0 0)
(1.07553e-13 0 0)
(1.43636e-13 0 0)
(1.27412e-13 0 0)
(1.43897e-13 0 0)
(1.28265e-13 0 0)
(1.45945e-13 0 0)
(9.12693e-14 0 0)
(1.18601e-13 0 0)
(6.7407e-14 0 0)
(1.09791e-13 0 0)
(4.30827e-14 0 0)
(1.06214e-13 0 0)
(4.2088e-14 0 0)
(1.22817e-13 0 0)
(6.15213e-14 0 0)
(1.10999e-13 0 0)
(7.09003e-14 0 0)
(8.92441e-14 0 0)
(9.34957e-14 0 0)
(1.35264e-13 0 0)
(1.29366e-13 0 0)
(9.40404e-14 0 0)
(1.52328e-13 0 0)
(1.29189e-13 0 0)
(1.17678e-13 0 0)
(1.27152e-13 0 0)
(1.28312e-13 0 0)
(8.35481e-14 0 0)
(1.35678e-13 0 0)
(8.32165e-14 0 0)
(9.96536e-14 0 0)
(8.33112e-14 0 0)
(1.10158e-13 0 0)
(7.90597e-14 0 0)
(6.73832e-14 0 0)
(9.17784e-14 0 0)
(6.66608e-14 0 0)
(1.031e-13 0 0)
(4.61884e-15 0 0)
(1.42073e-13 0 0)
(1.5715e-14 0 0)
(4.95249e-14 0 0)
(2.76165e-14 0 0)
(6.95739e-14 0 0)
(3.99799e-14 0 0)
(6.47186e-14 0 0)
(4.31774e-14 0 0)
(7.34108e-14 0 0)
(4.133e-14 0 0)
(5.41907e-14 0 0)
(4.4788e-14 0 0)
(7.13384e-14 0 0)
(6.76318e-14 0 0)
(4.70025e-14 0 0)
(6.28355e-14 0 0)
(-1.53949e-14 0 0)
(5.42379e-14 0 0)
(-6.01826e-14 0 0)
(9.71427e-14 0 0)
(-7.9105e-15 0 0)
(5.04366e-14 0 0)
(-9.60399e-15 0 0)
(5.38472e-14 0 0)
(-8.59744e-15 0 0)
(5.09695e-14 0 0)
(1.48148e-14 0 0)
(2.12808e-14 0 0)
(6.53706e-15 0 0)
(6.77264e-14 0 0)
(3.89969e-14 0 0)
(3.03877e-14 0 0)
(5.5896e-14 0 0)
(6.51093e-14 0 0)
(6.15804e-14 0 0)
(6.27054e-14 0 0)
(7.43701e-14 0 0)
(3.33247e-14 0 0)
(1.17109e-13 0 0)
(-1.34999e-14 0 0)
(1.30396e-13 0 0)
(2.27849e-14 0 0)
(1.12348e-13 0 0)
(3.43431e-14 0 0)
(1.43731e-13 0 0)
(5.83711e-14 0 0)
(8.23401e-14 0 0)
(3.4485e-14 0 0)
(7.58859e-14 0 0)
(3.30402e-14 0 0)
(2.21216e-14 0 0)
(2.55322e-14 0 0)
(5.94605e-14 0 0)
(1.81189e-14 0 0)
(3.15244e-14 0 0)
(2.94166e-14 0 0)
(6.79633e-14 0 0)
(4.25615e-14 0 0)
(9.68709e-15 0 0)
(2.7948e-14 0 0)
(8.25412e-15 0 0)
(2.75925e-15 0 0)
(-2.73441e-14 0 0)
(-2.47743e-14 0 0)
(-5.84894e-14 0 0)
(-4.46576e-14 0 0)
(-5.59671e-14 0 0)
(-3.39759e-14 0 0)
(-1.42298e-13 0 0)
(-6.88518e-14 0 0)
(-1.7702e-13 0 0)
(-5.25567e-14 0 0)
(-1.57148e-13 0 0)
(-6.21965e-14 0 0)
(-1.49036e-13 0 0)
(-9.3543e-14 0 0)
(-1.1011e-13 0 0)
(-8.79771e-14 0 0)
(-9.34364e-14 0 0)
(-1.05421e-13 0 0)
(-4.19103e-14 0 0)
(-5.07801e-14 0 0)
(-7.35529e-14 0 0)
(-4.62209e-14 0 0)
(-2.5473e-14 0 0)
(-5.3113e-14 0 0)
(-4.84945e-14 0 0)
(-3.9826e-14 0 0)
(-2.96534e-14 0 0)
(-9.35546e-14 0 0)
(-3.74932e-14 0 0)
(-8.47084e-14 0 0)
(-1.06702e-14 0 0)
(-9.27374e-14 0 0)
(-3.85352e-14 0 0)
(-4.39944e-14 0 0)
(-5.61091e-14 0 0)
(-9.37919e-15 0 0)
(-4.70143e-15 0 0)
(4.88852e-14 0 0)
(-3.32413e-14 0 0)
(9.26664e-14 0 0)
(-2.46295e-15 0 0)
(1.02318e-13 0 0)
(5.24262e-14 0 0)
(8.35836e-14 0 0)
(1.02365e-13 0 0)
(8.79889e-14 0 0)
(1.17749e-13 0 0)
(6.57135e-14 0 0)
(1.19359e-13 0 0)
(6.46357e-14 0 0)
(7.29491e-14 0 0)
(5.50433e-14 0 0)
(4.89801e-14 0 0)
(1.98005e-14 0 0)
(3.57995e-14 0 0)
(2.91796e-14 0 0)
(-1.45643e-15 0 0)
(4.35798e-14 0 0)
(4.86725e-15 0 0)
(-1.06571e-15 0 0)
(2.04991e-14 0 0)
(-7.44888e-15 0 0)
(2.94401e-14 0 0)
(-2.52241e-14 0 0)
(3.52191e-14 0 0)
(-9.07123e-15 0 0)
(-3.28388e-14 0 0)
(3.31111e-14 0 0)
(-7.16454e-15 0 0)
(5.76959e-14 0 0)
(7.94634e-15 0 0)
(3.09677e-14 0 0)
(1.86637e-14 0 0)
(5.15143e-14 0 0)
(5.07446e-14 0 0)
(1.33973e-13 0 0)
(2.31151e-13 0 0)
(4.19931e-13 0 0)
(7.68061e-13 0 0)
(1.40654e-12 0 0)
(2.59336e-12 0 0)
(4.6872e-12 0 0)
(8.43655e-12 0 0)
(1.5076e-11 0 0)
(2.68132e-11 0 0)
(4.72882e-11 0 0)
(8.31486e-11 0 0)
(1.45074e-10 0 0)
(2.51788e-10 0 0)
(4.34393e-10 0 0)
(7.44878e-10 0 0)
(1.26963e-09 0 0)
(2.15103e-09 0 0)
(3.62205e-09 0 0)
(6.06166e-09 0 0)
(1.00815e-08 0 0)
(1.66626e-08 0 0)
(2.73659e-08 0 0)
(4.46584e-08 0 0)
(7.24102e-08 0 0)
(1.16646e-07 0 0)
(1.86678e-07 0 0)
(2.96783e-07 0 0)
(4.68685e-07 0 0)
(7.35179e-07 0 0)
(1.14537e-06 0 0)
(1.77222e-06 0 0)
(2.72317e-06 0 0)
(4.1552e-06 0 0)
(6.29568e-06 0 0)
(9.47107e-06 0 0)
(1.4146e-05 0 0)
(2.09758e-05 0 0)
(3.08763e-05 0 0)
(4.5116e-05 0 0)
(6.54345e-05 0 0)
(9.41948e-05 0 0)
(0.000134576 0 0)
(0.000190811 0 0)
(0.00026848 0 0)
(0.000374861 0 0)
(0.000519352 0 0)
(0.000713946 0 0)
(0.000973792 0 0)
(0.00131781 0 0)
(0.00176934 0 0)
(0.00235689 0 0)
(0.0031148 0 0)
(0.00408404 0 0)
(0.00531279 0 0)
(0.00685709 0 0)
(0.00878132 0 0)
(0.0111585 0 0)
(0.0140703 0 0)
(0.0176073 0 0)
(0.0218682 0 0)
(0.0269595 0 0)
(0.0329947 0 0)
(0.040093 0 0)
(0.0483783 0 0)
(0.0579777 0 0)
(0.0690199 0 0)
(0.0816337 0 0)
(0.0959466 0 0)
(0.112083 0 0)
(0.130163 0 0)
(0.150302 0 0)
(0.172607 0 0)
(0.19718 0 0)
(0.224114 0 0)
(0.253494 0 0)
(0.285396 0 0)
(0.319889 0 0)
(0.357033 0 0)
(0.396882 0 0)
(0.439482 0 0)
(0.484872 0 0)
(0.533087 0 0)
(0.584155 0 0)
(0.638102 0 0)
(0.694948 0 0)
(0.754712 0 0)
(0.817409 0 0)
(0.883052 0 0)
(0.951654 0 0)
(1.02323 0 0)
(1.09778 0 0)
(1.17531 0 0)
(1.25585 0 0)
(1.33939 0 0)
(1.42595 0 0)
(1.51552 0 0)
(1.60813 0 0)
(1.70378 0 0)
(1.80248 0 0)
(1.90423 0 0)
(2.00905 0 0)
(2.11695 0 0)
(2.22793 0 0)
(2.34201 0 0)
(2.45919 0 0)
(2.5795 0 0)
(2.70293 0 0)
(2.8295 0 0)
(2.95922 0 0)
(3.0921 0 0)
(3.22817 0 0)
(3.36742 0 0)
(3.50988 0 0)
(3.65555 0 0)
(3.80445 0 0)
(3.9566 0 0)
(4.11201 0 0)
(4.2707 0 0)
(4.43268 0 0)
(4.59796 0 0)
(4.76658 0 0)
(4.93853 0 0)
(5.11384 0 0)
(5.29253 0 0)
(5.47461 0 0)
(5.6601 0 0)
(5.84903 0 0)
(6.0414 0 0)
(6.23724 0 0)
(6.43658 0 0)
(6.63942 0 0)
(6.84579 0 0)
(7.05571 0 0)
(7.26922 0 0)
(7.48627 0 0)
(7.70702 0 0)
(7.93126 0 0)
(8.15941 0 0)
(8.39082 0 0)
(8.62656 0 0)
(8.86512 0 0)
(9.10864 0 0)
(9.35435 0 0)
(9.60565 0 0)
(9.85842 0 0)
(10.1171 0 0)
(10.3785 0 0)
(10.6431 0 0)
(10.9113 0 0)
(11.1836 0 0)
(11.4599 0 0)
(11.7401 0 0)
(12.0242 0 0)
(12.3121 0 0)
(12.6041 0 0)
(12.8999 0 0)
(13.1998 0 0)
(13.5037 0 0)
(13.8116 0 0)
(14.1236 0 0)
(14.4396 0 0)
(14.7597 0 0)
(15.0839 0 0)
(15.4123 0 0)
(15.7448 0 0)
(16.0815 0 0)
(16.4224 0 0)
(16.7676 0 0)
(17.117 0 0)
(17.4706 0 0)
(17.8286 0 0)
(18.1909 0 0)
(18.5575 0 0)
(18.9285 0 0)
(19.3039 0 0)
(19.6838 0 0)
(20.068 0 0)
(20.4568 0 0)
(20.85 0 0)
(21.2477 0 0)
(21.65 0 0)
(22.0568 0 0)
(22.4682 0 0)
(22.8843 0 0)
(23.305 0 0)
(23.7303 0 0)
(24.1604 0 0)
(24.5951 0 0)
(25.0347 0 0)
(25.4787 0 0)
(25.9283 0 0)
(26.3814 0 0)
(26.8413 0 0)
(27.3032 0 0)
(27.7744 0 0)
(28.244 0 0)
(28.7278 0 0)
(29.2039 0 0)
(29.7019 0 0)
(30.1831 0 0)
(30.6967 0 0)
(31.1822 0 0)
(31.7119 0 0)
(32.2018 0 0)
(32.7478 0 0)
(33.242 0 0)
(33.8046 0 0)
(34.303 0 0)
(34.8824 0 0)
(35.385 0 0)
(35.9815 0 0)
(36.4881 0 0)
(37.1021 0 0)
(37.6127 0 0)
(38.2444 0 0)
(38.7588 0 0)
(39.4086 0 0)
(39.9267 0 0)
(40.5949 0 0)
(41.1164 0 0)
(41.8035 0 0)
(42.3282 0 0)
(43.0345 0 0)
(43.5622 0 0)
(44.2881 0 0)
(44.8185 0 0)
(45.5645 0 0)
(46.0971 0 0)
(46.8638 0 0)
(47.3982 0 0)
(48.186 0 0)
(48.7217 0 0)
(49.5311 0 0)
(50.0677 0 0)
(50.899 0 0)
(51.4358 0 0)
(52.2892 0 0)
(52.8252 0 0)
(53.7006 0 0)
(54.2327 0 0)
(55.1292 0 0)
(55.6475 0 0)
(56.5603 0 0)
(57.0291 0 0)
(58.5371 0 0)
)
;

boundaryField
{
    sideLeft
    {
        type            symmetryPlane;
    }
    sideRight
    {
        type            calculated;
        value           uniform (58.1976 0 0);
    }
    topbottom
    {
        type            empty;
    }
    frontback
    {
        type            empty;
    }
}


// ************************************************************************* //
