/*--------------------------------*- C++ -*----------------------------------*\
| =========                 |                                                 |
| \\      /  F ield         | OpenFOAM: The Open Source CFD Toolbox           |
|  \\    /   O peration     | Version:  2.4.0                                 |
|   \\  /    A nd           | Web:      www.OpenFOAM.org                      |
|    \\/     M anipulation  |                                                 |
\*---------------------------------------------------------------------------*/
FoamFile
{
    version     2.0;
    format      ascii;
    class       volVectorField;
    location    "0.06";
    object      U.water;
}
// * * * * * * * * * * * * * * * * * * * * * * * * * * * * * * * * * * * * * //

dimensions      [0 1 -1 0 0 0 0];

internalField   nonuniform List<vector> 
1000
(
(-1.8474e-13 0 0)
(-2.84217e-13 0 0)
(-5.75539e-13 0 0)
(-4.90275e-13 0 0)
(-2.06057e-13 0 0)
(1.35003e-13 0 0)
(3.97904e-13 0 0)
(3.97904e-13 0 0)
(2.84218e-14 0 0)
(-9.94761e-14 0 0)
(-2.34479e-13 0 0)
(-3.33955e-13 0 0)
(-4.26329e-14 0 0)
(-2.06057e-13 0 0)
(5.6843e-14 0 0)
(5.68438e-14 0 0)
(-9.94763e-14 0 0)
(-2.62901e-13 0 0)
(-7.10582e-15 0 0)
(-3.76587e-13 0 0)
(-3.12639e-13 0 0)
(-2.41584e-13 0 0)
(-3.90799e-13 0 0)
(-2.55795e-13 0 0)
(-2.84217e-13 0 0)
(-2.34479e-13 0 0)
(-2.06057e-13 0 0)
(-9.23708e-14 0 0)
(-7.10538e-14 0 0)
(3.97903e-13 0 0)
(5.18697e-13 0 0)
(7.10543e-13 0 0)
(7.53175e-13 0 0)
(5.89751e-13 0 0)
(4.9738e-13 0 0)
(1.91847e-13 0 0)
(4.47641e-13 0 0)
(-1.42104e-14 0 0)
(-5.68439e-14 0 0)
(-1.20792e-13 0 0)
(-1.98952e-13 0 0)
(-1.91846e-13 0 0)
(-2.06058e-13 0 0)
(-4.90274e-13 0 0)
(-5.40013e-13 0 0)
(-3.33955e-13 0 0)
(-1.20792e-13 0 0)
(-7.10549e-15 0 0)
(-7.81596e-14 0 0)
(-1.06582e-13 0 0)
(6.39493e-14 0 0)
(2.55795e-13 0 0)
(1.42109e-13 0 0)
(9.23703e-14 0 0)
(6.3949e-14 0 0)
(4.54747e-13 0 0)
(4.54747e-13 0 0)
(4.26326e-13 0 0)
(3.19744e-13 0 0)
(8.5265e-14 0 0)
(6.39491e-14 0 0)
(-1.77636e-13 0 0)
(-4.33431e-13 0 0)
(-2.27374e-13 0 0)
(-1.7053e-13 0 0)
(-3.62377e-13 0 0)
(-5.61329e-13 0 0)
(-1.91847e-13 0 0)
(1.20792e-13 0 0)
(-7.816e-14 0 0)
(-2.84214e-14 0 0)
(4.97377e-14 0 0)
(-9.94756e-14 0 0)
(-2.98428e-13 0 0)
(-4.9738e-13 0 0)
(-6.46594e-13 0 0)
(-7.53176e-13 0 0)
(-9.09494e-13 0 0)
(-8.95284e-13 0 0)
(-9.37916e-13 0 0)
(-9.73444e-13 0 0)
(-8.2423e-13 0 0)
(-6.11067e-13 0 0)
(-5.04486e-13 0 0)
(-4.76063e-13 0 0)
(-2.41585e-13 0 0)
(-4.05009e-13 0 0)
(-2.13163e-13 0 0)
(-2.77112e-13 0 0)
(-1.20792e-13 0 0)
(7.81595e-14 0 0)
(-2.34479e-13 0 0)
(-3.69482e-13 0 0)
(-3.76588e-13 0 0)
(-5.96856e-13 0 0)
(-5.68435e-13 0 0)
(-7.31859e-13 0 0)
(-5.54224e-13 0 0)
(-5.82645e-13 0 0)
(-2.62901e-13 0 0)
(-2.70006e-13 0 0)
(-4.26326e-13 0 0)
(-1.20792e-13 0 0)
(-9.94761e-14 0 0)
(7.10542e-14 0 0)
(2.4869e-13 0 0)
(2.70006e-13 0 0)
(1.13687e-13 0 0)
(-1.35003e-13 0 0)
(1.49214e-13 0 0)
(2.91323e-13 0 0)
(3.48166e-13 0 0)
(3.41061e-13 0 0)
(1.91846e-13 0 0)
(1.98952e-13 0 0)
(2.27374e-13 0 0)
(2.84218e-14 0 0)
(1.56319e-13 0 0)
(1.7053e-13 0 0)
(8.52651e-14 0 0)
(3.83693e-13 0 0)
(1.42108e-13 0 0)
(-2.13163e-14 0 0)
(-1.63425e-13 0 0)
(-2.70006e-13 0 0)
(-4.05009e-13 0 0)
(-3.55272e-13 0 0)
(-1.56319e-13 0 0)
(-1.98952e-13 0 0)
(-1.7053e-13 0 0)
(1.13686e-13 0 0)
(-1.56319e-13 0 0)
(-1.5632e-13 0 0)
(-2.91322e-13 0 0)
(1.63425e-13 0 0)
(1.98952e-13 0 0)
(-1.35003e-13 0 0)
(-2.06057e-13 0 0)
(-1.84741e-13 0 0)
(-4.26325e-14 0 0)
(2.84218e-14 0 0)
(7.10521e-15 0 0)
(-2.4869e-13 0 0)
(-1.84741e-13 0 0)
(-2.84217e-13 0 0)
(-4.0501e-13 0 0)
(-2.98428e-13 0 0)
(-3.97904e-13 0 0)
(-6.75016e-13 0 0)
(-7.67386e-13 0 0)
(-4.68958e-13 0 0)
(-2.98428e-13 0 0)
(-1.06581e-13 0 0)
(-1.77636e-13 0 0)
(-3.97904e-13 0 0)
(-2.34479e-13 0 0)
(2.13163e-13 0 0)
(1.84741e-13 0 0)
(9.23705e-14 0 0)
(1.13687e-13 0 0)
(-1.77635e-13 0 0)
(-1.13687e-13 0 0)
(-2.84217e-13 0 0)
(-1.49214e-13 0 0)
(-1.42108e-13 0 0)
(-6.39491e-14 0 0)
(-9.23704e-14 0 0)
(-1.5632e-13 0 0)
(-3.2685e-13 0 0)
(-3.4106e-13 0 0)
(-7.38965e-13 0 0)
(-7.67386e-13 0 0)
(-8.17124e-13 0 0)
(-7.10543e-13 0 0)
(-7.4607e-13 0 0)
(-7.4607e-13 0 0)
(-8.31335e-13 0 0)
(-9.09495e-13 0 0)
(-8.02913e-13 0 0)
(-8.52651e-13 0 0)
(-9.9476e-13 0 0)
(-8.52651e-13 0 0)
(-6.46594e-13 0 0)
(-6.46593e-13 0 0)
(-4.83169e-13 0 0)
(-4.83169e-13 0 0)
(-4.40537e-13 0 0)
(-7.6028e-13 0 0)
(-7.67387e-13 0 0)
(-7.03437e-13 0 0)
(-3.69482e-13 0 0)
(-3.4106e-13 0 0)
(-6.39491e-14 0 0)
(-2.62901e-13 0 0)
(-9.9476e-14 0 0)
(4.97381e-14 0 0)
(1.84741e-13 0 0)
(5.7554e-13 0 0)
(5.40013e-13 0 0)
(4.90275e-13 0 0)
(6.82121e-13 0 0)
(4.26326e-13 0 0)
(3.19744e-13 0 0)
(3.48166e-13 0 0)
(3.48166e-13 0 0)
(3.19744e-13 0 0)
(3.12639e-13 0 0)
(4.76064e-13 0 0)
(4.12115e-13 0 0)
(5.25802e-13 0 0)
(5.61329e-13 0 0)
(3.19744e-13 0 0)
(4.97382e-14 0 0)
(5.68432e-14 0 0)
(2.13163e-13 0 0)
(3.69482e-13 0 0)
(3.69482e-13 0 0)
(2.06057e-13 0 0)
(1.77636e-13 0 0)
(3.12639e-13 0 0)
(5.47118e-13 0 0)
(3.76588e-13 0 0)
(3.33955e-13 0 0)
(3.83693e-13 0 0)
(3.19745e-13 0 0)
(3.83693e-13 0 0)
(4.68958e-13 0 0)
(5.18696e-13 0 0)
(6.6791e-13 0 0)
(3.76588e-13 0 0)
(1.13687e-13 0 0)
(-6.39488e-14 0 0)
(1.77636e-13 0 0)
(3.05533e-13 0 0)
(2.91323e-13 0 0)
(3.69482e-13 0 0)
(2.77112e-13 0 0)
(6.32383e-13 0 0)
(4.47642e-13 0 0)
(1.13687e-13 0 0)
(-8.52652e-14 0 0)
(-2.84219e-14 0 0)
(-3.97903e-13 0 0)
(-3.48166e-13 0 0)
(-2.629e-13 0 0)
(2.06057e-13 0 0)
(5.18696e-13 0 0)
(4.05009e-13 0 0)
(3.2685e-13 0 0)
(3.97904e-13 0 0)
(4.40537e-13 0 0)
(2.98428e-13 0 0)
(5.844e-20 0 0)
(-2.4869e-13 0 0)
(4.26324e-14 0 0)
(-8.52649e-14 0 0)
(5.68432e-14 0 0)
(3.33955e-13 0 0)
(4.33431e-13 0 0)
(5.61329e-13 0 0)
(3.4106e-13 0 0)
(2.41585e-13 0 0)
(2.1316e-14 0 0)
(-1.13687e-13 0 0)
(-1.56319e-13 0 0)
(-1.27898e-13 0 0)
(-1.13686e-13 0 0)
(1.06581e-13 0 0)
(1.5632e-13 0 0)
(1.27897e-13 0 0)
(5.68436e-14 0 0)
(-2.41585e-13 0 0)
(-4.90274e-13 0 0)
(-5.7554e-13 0 0)
(-6.75016e-13 0 0)
(-3.05534e-13 0 0)
(-2.77111e-13 0 0)
(1.42103e-14 0 0)
(-2.13162e-13 0 0)
(-3.41061e-13 0 0)
(-2.62901e-13 0 0)
(-3.41061e-13 0 0)
(-5.61329e-13 0 0)
(-7.67386e-13 0 0)
(-4.90275e-13 0 0)
(-3.19744e-13 0 0)
(-1.63425e-13 0 0)
(-1.91846e-13 0 0)
(6.39487e-14 0 0)
(1.35003e-13 0 0)
(1.84741e-13 0 0)
(1.56319e-13 0 0)
(-5.68436e-14 0 0)
(4.97382e-14 0 0)
(2.20268e-13 0 0)
(7.10544e-14 0 0)
(2.8422e-14 0 0)
(-2.34479e-13 0 0)
(-2.27374e-13 0 0)
(-2.20268e-13 0 0)
(7.10523e-15 0 0)
(-2.84216e-14 0 0)
(-2.4869e-13 0 0)
(-1.70531e-13 0 0)
(-4.54747e-13 0 0)
(-4.68959e-13 0 0)
(-3.05533e-13 0 0)
(-2.84217e-13 0 0)
(-3.97904e-13 0 0)
(-3.4106e-13 0 0)
(-1.56319e-13 0 0)
(-3.62377e-13 0 0)
(-3.69482e-13 0 0)
(-2.4869e-13 0 0)
(-1.06582e-13 0 0)
(-9.94759e-14 0 0)
(4.97379e-14 0 0)
(4.9738e-14 0 0)
(1.91847e-13 0 0)
(7.88702e-13 0 0)
(7.60281e-13 0 0)
(9.9476e-13 0 0)
(9.52127e-13 0 0)
(7.81597e-13 0 0)
(8.88178e-13 0 0)
(7.67386e-13 0 0)
(9.73444e-13 0 0)
(9.59233e-13 0 0)
(7.53175e-13 0 0)
(5.25802e-13 0 0)
(4.33431e-13 0 0)
(4.83169e-13 0 0)
(4.9738e-13 0 0)
(2.34479e-13 0 0)
(4.26328e-14 0 0)
(1.63425e-13 0 0)
(-6.39488e-14 0 0)
(-3.33955e-13 0 0)
(-1.06581e-13 0 0)
(-1.56319e-13 0 0)
(-1.06582e-13 0 0)
(-1.13687e-13 0 0)
(-9.23707e-14 0 0)
(-1.35003e-13 0 0)
(-4.97384e-14 0 0)
(-1.98951e-13 0 0)
(-1.06582e-13 0 0)
(-4.97374e-14 0 0)
(1.56319e-13 0 0)
(3.48166e-13 0 0)
(2.34479e-13 0 0)
(1.35003e-13 0 0)
(-1.13687e-13 0 0)
(-3.4106e-13 0 0)
(-3.90799e-13 0 0)
(-3.90799e-13 0 0)
(-3.76587e-13 0 0)
(-1.91847e-13 0 0)
(3.2685e-13 0 0)
(3.05533e-13 0 0)
(2.06057e-13 0 0)
(4.05009e-13 0 0)
(6.537e-13 0 0)
(3.97904e-13 0 0)
(1.98952e-13 0 0)
(3.69482e-13 0 0)
(4.0501e-13 0 0)
(6.32383e-13 0 0)
(4.61853e-13 0 0)
(4.90275e-13 0 0)
(4.90275e-13 0 0)
(6.53699e-13 0 0)
(5.89751e-13 0 0)
(6.03961e-13 0 0)
(4.8317e-13 0 0)
(2.77111e-13 0 0)
(1.13687e-13 0 0)
(8.52649e-14 0 0)
(-2.4869e-13 0 0)
(7.10499e-15 0 0)
(2.20269e-13 0 0)
(2.13162e-13 0 0)
(-1.77636e-13 0 0)
(-3.05533e-13 0 0)
(-3.55275e-14 0 0)
(-3.55264e-14 0 0)
(-4.97387e-14 0 0)
(-4.97379e-13 0 0)
(-2.62901e-13 0 0)
(4.97385e-14 0 0)
(2.27374e-13 0 0)
(2.13163e-14 0 0)
(-1.20792e-13 0 0)
(-7.81594e-14 0 0)
(8.52648e-14 0 0)
(-2.84215e-14 0 0)
(1.49214e-13 0 0)
(1.98952e-13 0 0)
(-2.8422e-14 0 0)
(7.81598e-14 0 0)
(1.35003e-13 0 0)
(-1.7053e-13 0 0)
(-1.7053e-13 0 0)
(-1.91847e-13 0 0)
(-1.42108e-14 0 0)
(-2.91323e-13 0 0)
(-5.32907e-13 0 0)
(-3.90799e-13 0 0)
(-3.48166e-13 0 0)
(-1.20792e-13 0 0)
(-3.69482e-13 0 0)
(-1.70531e-13 0 0)
(-7.10521e-15 0 0)
(-5.68435e-14 0 0)
(-2.27374e-13 0 0)
(-1.06581e-13 0 0)
(1.42108e-13 0 0)
(2.4869e-13 0 0)
(1.63425e-13 0 0)
(3.55271e-13 0 0)
(1.27898e-13 0 0)
(2.70006e-13 0 0)
(3.2685e-13 0 0)
(4.12114e-13 0 0)
(3.97904e-13 0 0)
(2.98428e-13 0 0)
(1.63425e-13 0 0)
(2.91323e-13 0 0)
(7.24754e-13 0 0)
(5.96856e-13 0 0)
(6.11067e-13 0 0)
(5.04485e-13 0 0)
(2.41585e-13 0 0)
(2.41584e-13 0 0)
(5.61329e-13 0 0)
(7.31859e-13 0 0)
(5.82645e-13 0 0)
(4.47642e-13 0 0)
(6.25277e-13 0 0)
(5.18697e-13 0 0)
(3.97903e-13 0 0)
(1.42112e-14 0 0)
(7.10543e-14 0 0)
(1.06581e-13 0 0)
(-8.52651e-14 0 0)
(-4.26327e-14 0 0)
(-1.63425e-13 0 0)
(-3.69482e-13 0 0)
(-2.41584e-13 0 0)
(-2.84217e-13 0 0)
(-5.47118e-13 0 0)
(-3.69482e-13 0 0)
(-3.97904e-13 0 0)
(-2.27374e-13 0 0)
(-2.41584e-13 0 0)
(-4.54748e-13 0 0)
(-3.05533e-13 0 0)
(-4.47642e-13 0 0)
(-4.12115e-13 0 0)
(-4.9738e-13 0 0)
(-4.68959e-13 0 0)
(-6.75015e-13 0 0)
(-3.41061e-13 0 0)
(-2.91322e-13 0 0)
(-2.41585e-13 0 0)
(-5.68432e-14 0 0)
(-1.4211e-14 0 0)
(-2.27373e-13 0 0)
(-2.8422e-14 0 0)
(-1.84741e-13 0 0)
(-3.83693e-13 0 0)
(-3.83693e-13 0 0)
(-7.4607e-13 0 0)
(-7.60281e-13 0 0)
(-7.53175e-13 0 0)
(-9.0239e-13 0 0)
(-7.17648e-13 0 0)
(-5.40013e-13 0 0)
(-5.75539e-13 0 0)
(-4.61853e-13 0 0)
(-2.98428e-13 0 0)
(-1.35003e-13 0 0)
(-1.42108e-13 0 0)
(-1.49214e-13 0 0)
(-4.26326e-13 0 0)
(-3.05533e-13 0 0)
(-3.48166e-13 0 0)
(-1.20792e-13 0 0)
(7.10545e-14 0 0)
(-4.97381e-14 0 0)
(-1.84741e-13 0 0)
(-2.98428e-13 0 0)
(-1.42109e-13 0 0)
(-7.10534e-15 0 0)
(-2.20268e-13 0 0)
(-3.2685e-13 0 0)
(-3.41061e-13 0 0)
(-2.98428e-13 0 0)
(9.23706e-14 0 0)
(-2.68371e-20 0 0)
(-2.13164e-14 0 0)
(-1.49214e-13 0 0)
(-1.42108e-14 0 0)
(1.56319e-13 0 0)
(4.97382e-14 0 0)
(4.26325e-13 0 0)
(3.62377e-13 0 0)
(6.75015e-13 0 0)
(6.96332e-13 0 0)
(9.09494e-13 0 0)
(7.95808e-13 0 0)
(7.95808e-13 0 0)
(8.81073e-13 0 0)
(1.08713e-12 0 0)
(1.23634e-12 0 0)
(1.22924e-12 0 0)
(1.10134e-12 0 0)
(8.73967e-13 0 0)
(7.88702e-13 0 0)
(7.74492e-13 0 0)
(8.02913e-13 0 0)
(6.11067e-13 0 0)
(5.8975e-13 0 0)
(2.27374e-13 0 0)
(3.76588e-13 0 0)
(2.62901e-13 0 0)
(1.84741e-13 0 0)
(1.91847e-13 0 0)
(5.8975e-13 0 0)
(4.76064e-13 0 0)
(5.1159e-13 0 0)
(4.12115e-13 0 0)
(9.23703e-14 0 0)
(7.10545e-14 0 0)
(-7.81599e-14 0 0)
(-1.63425e-13 0 0)
(-3.76588e-13 0 0)
(-1.84741e-13 0 0)
(-1.63425e-13 0 0)
(-1.91847e-13 0 0)
(-1.56319e-13 0 0)
(-2.84219e-14 0 0)
(-5.68431e-14 0 0)
(-1.13687e-13 0 0)
(-1.84741e-13 0 0)
(-1.7053e-13 0 0)
(-2.55796e-13 0 0)
(-2.34479e-13 0 0)
(1.56319e-13 0 0)
(9.23706e-14 0 0)
(3.55271e-13 0 0)
(3.90799e-13 0 0)
(1.65456e-20 0 0)
(-3.19744e-13 0 0)
(-3.55272e-13 0 0)
(-4.40536e-13 0 0)
(-4.05009e-13 0 0)
(-4.05009e-13 0 0)
(-2.84217e-13 0 0)
(-1.13687e-13 0 0)
(-2.20268e-13 0 0)
(-2.06743e-19 0 0)
(4.26327e-14 0 0)
(1.63425e-13 0 0)
(8.52651e-14 0 0)
(9.23709e-14 0 0)
(4.12114e-13 0 0)
(1.91847e-13 0 0)
(3.76588e-13 0 0)
(1.84741e-13 0 0)
(3.19744e-13 0 0)
(3.48166e-13 0 0)
(2.55795e-13 0 0)
(1.35003e-13 0 0)
(3.2685e-13 0 0)
(3.19744e-13 0 0)
(7.81597e-14 0 0)
(-2.84218e-14 0 0)
(-3.55269e-14 0 0)
(-3.55273e-14 0 0)
(-4.83169e-13 0 0)
(-4.33431e-13 0 0)
(-4.54747e-13 0 0)
(-3.12639e-13 0 0)
(-5.8975e-13 0 0)
(-6.89227e-13 0 0)
(-8.88178e-13 0 0)
(-9.52128e-13 0 0)
(-9.94759e-13 0 0)
(-7.67387e-13 0 0)
(-6.03961e-13 0 0)
(-1.63425e-13 0 0)
(3.14439e-19 0 0)
(5.25801e-13 0 0)
(3.76588e-13 0 0)
(2.84217e-13 0 0)
(1.5632e-13 0 0)
(5.68433e-14 0 0)
(5.68433e-14 0 0)
(-2.62901e-13 0 0)
(-1.49214e-13 0 0)
(-4.54747e-13 0 0)
(-6.32383e-13 0 0)
(-5.18696e-13 0 0)
(-4.33431e-13 0 0)
(-2.70006e-13 0 0)
(-2.06058e-13 0 0)
(-1.7053e-13 0 0)
(-2.27374e-13 0 0)
(-2.98428e-13 0 0)
(-1.20792e-13 0 0)
(-2.91322e-13 0 0)
(-4.33431e-13 0 0)
(-2.41585e-13 0 0)
(7.81598e-14 0 0)
(3.05533e-13 0 0)
(2.98429e-13 0 0)
(5.18695e-13 0 0)
(4.47642e-13 0 0)
(1.27898e-13 0 0)
(4.26328e-14 0 0)
(1.27897e-13 0 0)
(2.34479e-13 0 0)
(3.5527e-14 0 0)
(-4.26325e-13 0 0)
(-2.77112e-13 0 0)
(1.35003e-13 0 0)
(9.23705e-14 0 0)
(7.10544e-14 0 0)
(2.06057e-13 0 0)
(1.7053e-13 0 0)
(5.40013e-13 0 0)
(5.25801e-13 0 0)
(4.40537e-13 0 0)
(3.33955e-13 0 0)
(4.26334e-14 0 0)
(2.27373e-13 0 0)
(1.13687e-13 0 0)
(6.39485e-14 0 0)
(-1.20792e-13 0 0)
(-2.20269e-13 0 0)
(-3.90798e-13 0 0)
(-5.32907e-13 0 0)
(-5.61329e-13 0 0)
(-2.62901e-13 0 0)
(-2.06057e-13 0 0)
(2.84214e-14 0 0)
(-5.68434e-14 0 0)
(4.26327e-14 0 0)
(7.10538e-15 0 0)
(3.55271e-14 0 0)
(2.91323e-13 0 0)
(8.52652e-14 0 0)
(2.84216e-14 0 0)
(9.23709e-14 0 0)
(3.62376e-13 0 0)
(3.41061e-13 0 0)
(5.82644e-13 0 0)
(2.55796e-13 0 0)
(-2.3448e-13 0 0)
(-4.1922e-13 0 0)
(7.10537e-14 0 0)
(3.55275e-14 0 0)
(1.35003e-13 0 0)
(-1.63425e-13 0 0)
(-8.52654e-14 0 0)
(-1.27898e-13 0 0)
(-4.26325e-14 0 0)
(2.13164e-14 0 0)
(9.23703e-14 0 0)
(1.20792e-13 0 0)
(2.13163e-13 0 0)
(2.55796e-13 0 0)
(1.91846e-13 0 0)
(1.35003e-13 0 0)
(1.06582e-13 0 0)
(1.7053e-13 0 0)
(-1.98952e-13 0 0)
(-3.48166e-13 0 0)
(-4.40536e-13 0 0)
(-2.84217e-13 0 0)
(-1.77636e-13 0 0)
(2.13162e-14 0 0)
(7.10543e-14 0 0)
(8.52647e-14 0 0)
(-1.7053e-13 0 0)
(-7.10594e-15 0 0)
(-1.42108e-13 0 0)
(2.84211e-14 0 0)
(-3.83693e-13 0 0)
(-7.3186e-13 0 0)
(-8.66862e-13 0 0)
(-9.73444e-13 0 0)
(-6.96332e-13 0 0)
(-4.61853e-13 0 0)
(-3.33955e-13 0 0)
(-2.70006e-13 0 0)
(-2.27374e-13 0 0)
(-1.98952e-13 0 0)
(-3.12639e-13 0 0)
(-1.84741e-13 0 0)
(-1.77636e-13 0 0)
(-2.84217e-13 0 0)
(-1.98952e-13 0 0)
(1.35691e-20 0 0)
(-1.20792e-13 0 0)
(-1.91846e-13 0 0)
(-2.27374e-13 0 0)
(-2.91322e-13 0 0)
(-9.94764e-14 0 0)
(-2.77111e-13 0 0)
(-1.84741e-13 0 0)
(1.42108e-14 0 0)
(2.13165e-14 0 0)
(2.91322e-13 0 0)
(2.41585e-13 0 0)
(2.27373e-13 0 0)
(9.94766e-14 0 0)
(2.41584e-13 0 0)
(8.52657e-14 0 0)
(6.39484e-14 0 0)
(-2.4869e-13 0 0)
(-1.56319e-13 0 0)
(-2.84217e-13 0 0)
(-5.11591e-13 0 0)
(-5.25802e-13 0 0)
(-4.61852e-13 0 0)
(-2.34479e-13 0 0)
(-1.98952e-13 0 0)
(3.2685e-13 0 0)
(4.68958e-13 0 0)
(7.03437e-13 0 0)
(6.6791e-13 0 0)
(4.47642e-13 0 0)
(3.12639e-13 0 0)
(3.19744e-13 0 0)
(2.4869e-13 0 0)
(4.61853e-13 0 0)
(4.1922e-13 0 0)
(4.26324e-14 0 0)
(1.42109e-13 0 0)
(2.77111e-13 0 0)
(-9.94756e-14 0 0)
(9.94756e-14 0 0)
(7.10549e-15 0 0)
(-1.7053e-13 0 0)
(-1.13687e-13 0 0)
(1.70531e-13 0 0)
(5.18696e-13 0 0)
(6.18172e-13 0 0)
(1.21503e-12 0 0)
(2.47979e-12 0 0)
(4.59011e-12 0 0)
(8.18545e-12 0 0)
(1.49285e-11 0 0)
(2.7029e-11 0 0)
(4.8999e-11 0 0)
(8.87539e-11 0 0)
(1.6081e-10 0 0)
(2.89361e-10 0 0)
(5.17495e-10 0 0)
(9.20515e-10 0 0)
(1.62733e-09 0 0)
(2.8598e-09 0 0)
(4.99643e-09 0 0)
(8.67723e-09 0 0)
(1.49795e-08 0 0)
(2.57036e-08 0 0)
(4.38374e-08 0 0)
(7.43057e-08 0 0)
(1.25169e-07 0 0)
(2.09531e-07 0 0)
(3.48534e-07 0 0)
(5.76054e-07 0 0)
(9.45958e-07 0 0)
(1.54328e-06 0 0)
(2.5012e-06 0 0)
(4.02677e-06 0 0)
(6.4393e-06 0 0)
(1.02273e-05 0 0)
(1.61324e-05 0 0)
(2.52705e-05 0 0)
(3.93075e-05 0 0)
(6.07089e-05 0 0)
(9.30917e-05 0 0)
(0.000141715 0 0)
(0.000214159 0 0)
(0.000321245 0 0)
(0.000478278 0 0)
(0.000706698 0 0)
(0.00103624 0 0)
(0.00150775 0 0)
(0.0021767 0 0)
(0.00311772 0 0)
(0.00443002 0 0)
(0.00624413 0 0)
(0.00872972 0 0)
(0.0121048 0 0)
(0.0166459 0 0)
(0.0226998 0 0)
(0.0306953 0 0)
(0.0411554 0 0)
(0.0547096 0 0)
(0.0721041 0 0)
(0.0942103 0 0)
(0.12203 0 0)
(0.156695 0 0)
(0.199464 0 0)
(0.251709 0 0)
(0.314898 0 0)
(0.390567 0 0)
(0.480292 0 0)
(0.585647 0 0)
(0.708161 0 0)
(0.849273 0 0)
(1.01029 0 0)
(1.19233 0 0)
(1.3963 0 0)
(1.62287 0 0)
(1.87242 0 0)
(2.14504 0 0)
(2.44055 0 0)
(2.75849 0 0)
(3.09813 0 0)
(3.45851 0 0)
(3.83848 0 0)
(4.23671 0 0)
(4.65179 0 0)
(5.08219 0 0)
(5.52639 0 0)
(5.98284 0 0)
(6.45006 0 0)
(6.92661 0 0)
(7.41117 0 0)
(7.90251 0 0)
(8.39953 0 0)
(8.90125 0 0)
(9.40682 0 0)
(9.91551 0 0)
(10.4267 0 0)
(10.9399 0 0)
(11.4547 0 0)
(11.9708 0 0)
(12.4879 0 0)
(13.0058 0 0)
(13.5244 0 0)
(14.0435 0 0)
(14.5632 0 0)
(15.0832 0 0)
(15.6038 0 0)
(16.1247 0 0)
(16.6461 0 0)
(17.1679 0 0)
(17.6902 0 0)
(18.213 0 0)
(18.7363 0 0)
(19.2602 0 0)
(19.7847 0 0)
(20.3098 0 0)
(20.8356 0 0)
(21.3621 0 0)
(21.8894 0 0)
(22.4176 0 0)
(22.9466 0 0)
(23.4765 0 0)
(24.0074 0 0)
(24.5393 0 0)
(25.0722 0 0)
(25.6063 0 0)
(26.1415 0 0)
(26.6779 0 0)
(27.2155 0 0)
(27.7544 0 0)
(28.2947 0 0)
(28.8363 0 0)
(29.3793 0 0)
(29.9238 0 0)
(30.4698 0 0)
(31.0172 0 0)
(31.5663 0 0)
(32.1169 0 0)
(32.6691 0 0)
(33.223 0 0)
(33.7785 0 0)
(34.3358 0 0)
(34.8947 0 0)
(35.4555 0 0)
(36.0178 0 0)
(36.5824 0 0)
(37.1477 0 0)
(37.7168 0 0)
(38.2844 0 0)
(38.8589 0 0)
(39.4281 0 0)
(40.0082 0 0)
(40.5798 0 0)
(41.1638 0 0)
(41.7399 0 0)
(42.3255 0 0)
(42.9052 0 0)
(43.4919 0 0)
(44.076 0 0)
(44.6594 0 0)
(45.2419 0 0)
(45.8249 0 0)
(46.4109 0 0)
(47.0003 0 0)
(47.5914 0 0)
(48.1833 0 0)
(48.7767 0 0)
(49.3719 0 0)
(49.9689 0 0)
(50.5676 0 0)
(51.1679 0 0)
(51.77 0 0)
(52.3738 0 0)
(52.9794 0 0)
(53.5867 0 0)
(54.1958 0 0)
(54.8067 0 0)
(55.4193 0 0)
(56.0337 0 0)
(56.6498 0 0)
(57.2677 0 0)
(57.8874 0 0)
(58.5088 0 0)
(59.1319 0 0)
(59.7568 0 0)
(60.3833 0 0)
(61.0116 0 0)
(61.6416 0 0)
(62.2733 0 0)
(62.9067 0 0)
(63.5417 0 0)
(64.1785 0 0)
(64.817 0 0)
(65.457 0 0)
(66.099 0 0)
(66.742 0 0)
(67.388 0 0)
(68.0334 0 0)
(68.6844 0 0)
(69.3302 0 0)
(69.9891 0 0)
(70.6311 0 0)
(71.3041 0 0)
(71.9334 0 0)
(72.6322 0 0)
(73.2341 0 0)
(73.9757 0 0)
(74.532 0 0)
(75.3329 0 0)
(75.8317 0 0)
(76.6941 0 0)
(77.1459 0 0)
(78.0428 0 0)
(78.4883 0 0)
(79.3846 0 0)
(79.8364 0 0)
(80.7368 0 0)
(81.1869 0 0)
(82.0914 0 0)
(82.5444 0 0)
(83.4514 0 0)
(83.9051 0 0)
(84.8156 0 0)
(85.271 0 0)
(86.1835 0 0)
(86.6398 0 0)
(87.5548 0 0)
(88.012 0 0)
(88.9288 0 0)
(89.3869 0 0)
(90.3053 0 0)
(90.7639 0 0)
(91.6832 0 0)
(92.142 0 0)
(93.0618 0 0)
(93.5205 0 0)
(94.44 0 0)
(94.8983 0 0)
(95.8169 0 0)
(96.2744 0 0)
(97.1914 0 0)
(97.6477 0 0)
(98.5606 0 0)
(99.0192 0 0)
(99.922 0 0)
(100.384 0 0)
(101.277 0 0)
(101.74 0 0)
(102.622 0 0)
(103.085 0 0)
(103.953 0 0)
(104.414 0 0)
(105.267 0 0)
(105.722 0 0)
(106.558 0 0)
(107.017 0 0)
(108.675 0 0)
)
;

boundaryField
{
    sideLeft
    {
        type            symmetryPlane;
    }
    sideRight
    {
        type            zeroGradient;
    }
    topbottom
    {
        type            empty;
    }
    frontback
    {
        type            empty;
    }
}


// ************************************************************************* //
