/*--------------------------------*- C++ -*----------------------------------*\
| =========                 |                                                 |
| \\      /  F ield         | OpenFOAM: The Open Source CFD Toolbox           |
|  \\    /   O peration     | Version:  2.4.0                                 |
|   \\  /    A nd           | Web:      www.OpenFOAM.org                      |
|    \\/     M anipulation  |                                                 |
\*---------------------------------------------------------------------------*/
FoamFile
{
    version     2.0;
    format      ascii;
    class       volVectorField;
    location    "0.06";
    object      U.waterMean;
}
// * * * * * * * * * * * * * * * * * * * * * * * * * * * * * * * * * * * * * //

dimensions      [0 1 -1 0 0 0 0];

internalField   nonuniform List<vector> 
1000
(
(-8.12503e-14 0 0)
(-2.58283e-14 0 0)
(-6.57962e-14 0 0)
(-3.76944e-14 0 0)
(-9.63494e-14 0 0)
(-1.56677e-14 0 0)
(-8.29084e-14 0 0)
(-5.2071e-14 0 0)
(-7.1753e-14 0 0)
(-5.3196e-14 0 0)
(-6.58911e-14 0 0)
(-1.18684e-13 0 0)
(-5.85134e-14 0 0)
(-1.17843e-13 0 0)
(-3.39996e-14 0 0)
(-8.97415e-14 0 0)
(-2.72375e-14 0 0)
(-6.3037e-14 0 0)
(-2.05348e-14 0 0)
(-1.01394e-13 0 0)
(-2.50943e-14 0 0)
(-1.03467e-13 0 0)
(-8.00901e-14 0 0)
(-1.01122e-13 0 0)
(-1.30704e-13 0 0)
(-1.09731e-13 0 0)
(-1.2303e-13 0 0)
(-1.16079e-13 0 0)
(-1.66433e-13 0 0)
(-6.90176e-14 0 0)
(-1.34446e-13 0 0)
(-1.09826e-13 0 0)
(-9.3093e-14 0 0)
(-9.00494e-14 0 0)
(-4.54868e-14 0 0)
(-1.49237e-13 0 0)
(-1.66152e-14 0 0)
(-1.12384e-13 0 0)
(-3.67589e-14 0 0)
(-1.06415e-13 0 0)
(-1.69467e-14 0 0)
(-9.11506e-14 0 0)
(-5.51618e-14 0 0)
(-7.25227e-14 0 0)
(-1.35122e-14 0 0)
(-3.1856e-14 0 0)
(-3.63561e-14 0 0)
(-2.1115e-14 0 0)
(-3.36797e-14 0 0)
(-2.26664e-14 0 0)
(-8.52057e-14 0 0)
(1.16043e-15 0 0)
(-4.35917e-14 0 0)
(2.99019e-14 0 0)
(-7.96984e-15 0 0)
(6.27644e-15 0 0)
(4.17798e-14 0 0)
(1.72544e-14 0 0)
(5.05196e-14 0 0)
(6.52514e-14 0 0)
(3.50536e-14 0 0)
(8.75151e-14 0 0)
(6.30962e-14 0 0)
(7.39439e-14 0 0)
(9.54732e-14 0 0)
(9.99024e-14 0 0)
(1.16328e-13 0 0)
(9.90496e-14 0 0)
(7.58624e-14 0 0)
(1.06735e-13 0 0)
(3.35734e-14 0 0)
(6.57368e-14 0 0)
(3.20949e-15 0 0)
(6.39132e-14 0 0)
(1.79767e-14 0 0)
(-1.79765e-14 0 0)
(3.73151e-14 0 0)
(-2.17898e-14 0 0)
(6.11065e-15 0 0)
(1.70057e-14 0 0)
(4.14956e-14 0 0)
(5.71987e-14 0 0)
(4.3805e-14 0 0)
(5.48894e-14 0 0)
(7.60288e-15 0 0)
(1.45542e-14 0 0)
(-3.15362e-14 0 0)
(-1.95409e-15 0 0)
(-5.35631e-14 0 0)
(-7.60753e-14 0 0)
(-2.0594e-14 0 0)
(-3.98496e-14 0 0)
(-5.85842e-14 0 0)
(-1.31569e-14 0 0)
(-3.88311e-14 0 0)
(-5.16348e-15 0 0)
(-7.89885e-14 0 0)
(-1.52413e-14 0 0)
(-7.28069e-14 0 0)
(-4.92407e-14 0 0)
(-9.21218e-14 0 0)
(-8.65915e-14 0 0)
(-1.04698e-13 0 0)
(-9.71431e-14 0 0)
(-1.07209e-13 0 0)
(-1.39302e-13 0 0)
(-9.50708e-14 0 0)
(-1.40723e-13 0 0)
(-1.55514e-13 0 0)
(-1.35536e-13 0 0)
(-1.7246e-13 0 0)
(-1.46325e-13 0 0)
(-1.71051e-13 0 0)
(-1.4199e-13 0 0)
(-1.80762e-13 0 0)
(-1.56307e-13 0 0)
(-1.43056e-13 0 0)
(-9.7676e-14 0 0)
(-1.28324e-13 0 0)
(-1.16659e-13 0 0)
(-1.01773e-13 0 0)
(-7.52821e-14 0 0)
(-6.04316e-14 0 0)
(-6.06922e-14 0 0)
(-4.73932e-14 0 0)
(-6.47896e-14 0 0)
(-3.88194e-14 0 0)
(-7.19068e-14 0 0)
(-3.57028e-17 0 0)
(-1.18258e-13 0 0)
(-2.02507e-14 0 0)
(-1.39989e-13 0 0)
(-7.72124e-14 0 0)
(-1.13308e-13 0 0)
(-6.1391e-14 0 0)
(-9.66929e-14 0 0)
(-7.13977e-14 0 0)
(-5.75303e-14 0 0)
(-2.67402e-14 0 0)
(-4.08206e-14 0 0)
(-5.12302e-14 0 0)
(-3.5989e-14 0 0)
(-8.68045e-14 0 0)
(-5.16447e-14 0 0)
(-1.00565e-13 0 0)
(-6.03134e-14 0 0)
(-8.25177e-14 0 0)
(-9.76286e-14 0 0)
(-9.17903e-14 0 0)
(-1.08891e-13 0 0)
(-1.04272e-13 0 0)
(-1.0278e-13 0 0)
(-9.72022e-14 0 0)
(-1.03431e-13 0 0)
(-8.89244e-14 0 0)
(-9.11152e-14 0 0)
(-7.11964e-14 0 0)
(-8.42585e-14 0 0)
(-9.61838e-14 0 0)
(-1.12645e-13 0 0)
(-1.38378e-13 0 0)
(-6.68977e-14 0 0)
(-9.6989e-14 0 0)
(-4.5688e-14 0 0)
(-6.93607e-14 0 0)
(-1.6153e-14 0 0)
(-5.96737e-14 0 0)
(-1.97295e-14 0 0)
(-6.92898e-14 0 0)
(-6.91002e-14 0 0)
(-5.52922e-14 0 0)
(-6.33449e-14 0 0)
(-8.86876e-14 0 0)
(-6.64358e-14 0 0)
(-1.16825e-13 0 0)
(-6.29543e-14 0 0)
(-1.13012e-13 0 0)
(-9.08312e-14 0 0)
(-1.43352e-13 0 0)
(-1.40249e-13 0 0)
(-1.2907e-13 0 0)
(-1.11188e-13 0 0)
(-9.99497e-14 0 0)
(-1.66871e-13 0 0)
(-9.51182e-14 0 0)
(-1.56106e-13 0 0)
(-9.29985e-14 0 0)
(-1.8949e-13 0 0)
(-6.60808e-14 0 0)
(-1.4932e-13 0 0)
(-8.59047e-14 0 0)
(-1.04213e-13 0 0)
(-5.37764e-14 0 0)
(-7.4903e-14 0 0)
(-6.98818e-14 0 0)
(-8.07058e-14 0 0)
(-7.16701e-14 0 0)
(-6.61752e-14 0 0)
(-6.0929e-14 0 0)
(-5.44513e-14 0 0)
(-2.18256e-14 0 0)
(-5.83828e-14 0 0)
(-7.05813e-15 0 0)
(-4.75708e-14 0 0)
(-3.79667e-14 0 0)
(-3.38099e-14 0 0)
(8.64477e-15 0 0)
(-1.90898e-14 0 0)
(-3.2531e-14 0 0)
(-2.01202e-14 0 0)
(1.30384e-14 0 0)
(1.84504e-14 0 0)
(-2.35661e-15 0 0)
(6.145e-14 0 0)
(3.94707e-14 0 0)
(9.27968e-14 0 0)
(5.62751e-14 0 0)
(5.15972e-14 0 0)
(5.01408e-14 0 0)
(9.0298e-14 0 0)
(8.17006e-14 0 0)
(7.16938e-14 0 0)
(9.48338e-14 0 0)
(8.67809e-14 0 0)
(3.97314e-14 0 0)
(1.10572e-13 0 0)
(9.03218e-14 0 0)
(6.43043e-14 0 0)
(1.21858e-13 0 0)
(8.6106e-14 0 0)
(8.10019e-14 0 0)
(5.41197e-14 0 0)
(5.40014e-14 0 0)
(7.55542e-14 0 0)
(6.57134e-14 0 0)
(9.48455e-14 0 0)
(4.4184e-14 0 0)
(6.08224e-14 0 0)
(1.5774e-14 0 0)
(4.55943e-15 0 0)
(3.9139e-14 0 0)
(4.03943e-14 0 0)
(-2.67399e-14 0 0)
(7.93674e-14 0 0)
(4.39364e-15 0 0)
(3.73981e-14 0 0)
(-1.34765e-14 0 0)
(1.59161e-14 0 0)
(-1.44473e-15 0 0)
(4.36272e-14 0 0)
(2.87416e-14 0 0)
(4.87076e-14 0 0)
(1.09069e-14 0 0)
(-7.2593e-15 0 0)
(2.2986e-14 0 0)
(-9.59221e-15 0 0)
(2.85045e-14 0 0)
(-8.65667e-15 0 0)
(3.83809e-14 0 0)
(-6.04787e-14 0 0)
(4.08085e-14 0 0)
(-4.59127e-14 0 0)
(6.63159e-15 0 0)
(-4.25378e-14 0 0)
(-3.97074e-14 0 0)
(-1.13333e-14 0 0)
(-6.76554e-14 0 0)
(2.43122e-14 0 0)
(-3.77653e-14 0 0)
(2.98309e-14 0 0)
(-1.33699e-14 0 0)
(2.36847e-14 0 0)
(-8.2541e-15 0 0)
(3.45801e-15 0 0)
(2.92151e-14 0 0)
(5.08393e-14 0 0)
(2.05112e-14 0 0)
(1.16493e-13 0 0)
(4.29169e-14 0 0)
(9.42416e-14 0 0)
(9.02035e-14 0 0)
(1.28703e-13 0 0)
(1.148e-13 0 0)
(4.71685e-14 0 0)
(1.70838e-13 0 0)
(1.0207e-13 0 0)
(1.3884e-13 0 0)
(1.12858e-13 0 0)
(1.44619e-13 0 0)
(1.08275e-13 0 0)
(1.32185e-13 0 0)
(1.24771e-13 0 0)
(1.34518e-13 0 0)
(9.25956e-14 0 0)
(1.32268e-13 0 0)
(1.18909e-13 0 0)
(1.13462e-13 0 0)
(1.77576e-13 0 0)
(1.59351e-13 0 0)
(1.29852e-13 0 0)
(1.87287e-13 0 0)
(1.70708e-13 0 0)
(1.7027e-13 0 0)
(2.07028e-13 0 0)
(1.40178e-13 0 0)
(2.10545e-13 0 0)
(1.47165e-13 0 0)
(1.77446e-13 0 0)
(1.4591e-13 0 0)
(1.21988e-13 0 0)
(1.21704e-13 0 0)
(1.00305e-13 0 0)
(1.07387e-13 0 0)
(8.98008e-14 0 0)
(1.29733e-13 0 0)
(1.16316e-13 0 0)
(1.33428e-13 0 0)
(1.19951e-13 0 0)
(1.11484e-13 0 0)
(1.49321e-13 0 0)
(1.19324e-13 0 0)
(9.57695e-14 0 0)
(1.23776e-13 0 0)
(7.20847e-14 0 0)
(1.14504e-13 0 0)
(5.74237e-14 0 0)
(4.36748e-14 0 0)
(5.63933e-14 0 0)
(3.23297e-14 0 0)
(2.92152e-14 0 0)
(4.13891e-14 0 0)
(5.04485e-14 0 0)
(1.78229e-14 0 0)
(8.19254e-14 0 0)
(2.28204e-14 0 0)
(5.94012e-14 0 0)
(1.8711e-14 0 0)
(1.90669e-15 0 0)
(2.46795e-14 0 0)
(3.42481e-14 0 0)
(4.70972e-14 0 0)
(2.93572e-14 0 0)
(3.88193e-14 0 0)
(-1.46607e-14 0 0)
(2.88952e-14 0 0)
(-6.86382e-14 0 0)
(2.02621e-14 0 0)
(-8.06819e-14 0 0)
(-2.12e-15 0 0)
(-6.40316e-14 0 0)
(-6.5524e-14 0 0)
(-6.21487e-14 0 0)
(-6.46713e-14 0 0)
(-6.57014e-14 0 0)
(-2.10085e-14 0 0)
(-2.66573e-14 0 0)
(-8.05635e-14 0 0)
(-3.18325e-14 0 0)
(-7.07107e-14 0 0)
(-4.92644e-14 0 0)
(-5.55644e-14 0 0)
(-7.08767e-14 0 0)
(-1.07647e-13 0 0)
(-9.55916e-14 0 0)
(-6.93846e-14 0 0)
(-7.33873e-14 0 0)
(-1.34446e-13 0 0)
(-9.34838e-14 0 0)
(-1.46656e-13 0 0)
(-1.33179e-13 0 0)
(-1.36341e-13 0 0)
(-1.25589e-13 0 0)
(-1.72212e-13 0 0)
(-1.34245e-13 0 0)
(-1.92391e-13 0 0)
(-1.1075e-13 0 0)
(-1.43944e-13 0 0)
(-1.10182e-13 0 0)
(-1.54875e-13 0 0)
(-9.29629e-14 0 0)
(-1.84125e-13 0 0)
(-1.16766e-13 0 0)
(-1.6622e-13 0 0)
(-1.8075e-13 0 0)
(-1.62868e-13 0 0)
(-2.48713e-13 0 0)
(-1.17666e-13 0 0)
(-2.23229e-13 0 0)
(-1.19585e-13 0 0)
(-2.16372e-13 0 0)
(-1.55147e-13 0 0)
(-1.52992e-13 0 0)
(-1.43636e-13 0 0)
(-1.70305e-13 0 0)
(-1.05196e-13 0 0)
(-1.34577e-13 0 0)
(-9.93221e-14 0 0)
(-1.08559e-13 0 0)
(-4.26445e-14 0 0)
(-6.20186e-14 0 0)
(-3.58706e-14 0 0)
(-5.27816e-14 0 0)
(-9.75336e-14 0 0)
(-4.58183e-14 0 0)
(-7.59688e-14 0 0)
(-7.11016e-14 0 0)
(-5.63343e-14 0 0)
(-6.14027e-14 0 0)
(-8.08006e-14 0 0)
(-4.81393e-14 0 0)
(-6.83423e-14 0 0)
(-3.84049e-14 0 0)
(-8.86993e-14 0 0)
(-6.04198e-14 0 0)
(-5.96857e-14 0 0)
(-9.20981e-14 0 0)
(-5.53869e-14 0 0)
(-4.47287e-14 0 0)
(-1.23847e-13 0 0)
(-9.47416e-15 0 0)
(-7.29845e-14 0 0)
(-4.57353e-14 0 0)
(-7.28541e-14 0 0)
(-1.42126e-15 0 0)
(-4.68484e-14 0 0)
(-2.86112e-14 0 0)
(-6.60809e-15 0 0)
(-1.14871e-14 0 0)
(-4.22782e-15 0 0)
(-2.45609e-14 0 0)
(2.36253e-14 0 0)
(-1.08238e-14 0 0)
(-1.29081e-14 0 0)
(2.81374e-14 0 0)
(2.12452e-14 0 0)
(-1.86872e-14 0 0)
(-1.70534e-15 0 0)
(-5.00576e-14 0 0)
(-1.46136e-14 0 0)
(-8.3311e-14 0 0)
(1.3808e-14 0 0)
(-6.40553e-14 0 0)
(-3.44139e-14 0 0)
(-3.15718e-14 0 0)
(-3.41889e-14 0 0)
(-2.84336e-14 0 0)
(-4.87905e-14 0 0)
(-4.50111e-16 0 0)
(-2.53072e-14 0 0)
(-5.81458e-15 0 0)
(-3.04349e-14 0 0)
(-3.50415e-14 0 0)
(-7.11652e-17 0 0)
(-9.4744e-16 0 0)
(-3.28033e-14 0 0)
(1.4862e-14 0 0)
(-1.84741e-14 0 0)
(-4.34852e-14 0 0)
(-1.00661e-14 0 0)
(-7.92253e-14 0 0)
(9.35325e-16 0 0)
(-8.16886e-14 0 0)
(-2.1198e-14 0 0)
(-9.71666e-14 0 0)
(-7.5815e-14 0 0)
(-1.46845e-13 0 0)
(-1.19158e-13 0 0)
(-1.48586e-13 0 0)
(-8.93509e-14 0 0)
(-1.3151e-13 0 0)
(-1.12882e-13 0 0)
(-1.55597e-13 0 0)
(-1.10182e-13 0 0)
(-1.21574e-13 0 0)
(-1.44441e-13 0 0)
(-1.11804e-13 0 0)
(-1.60346e-13 0 0)
(-9.49997e-14 0 0)
(-1.47864e-13 0 0)
(-8.87113e-14 0 0)
(-7.42991e-14 0 0)
(-6.08818e-14 0 0)
(-1.13379e-13 0 0)
(-4.50959e-14 0 0)
(-6.45765e-14 0 0)
(-8.2411e-14 0 0)
(-7.73071e-14 0 0)
(-7.91544e-14 0 0)
(-9.46916e-14 0 0)
(-4.83643e-14 0 0)
(-4.14365e-14 0 0)
(-5.96856e-14 0 0)
(-5.23907e-14 0 0)
(-5.81934e-14 0 0)
(-4.493e-14 0 0)
(-3.73509e-14 0 0)
(-5.29472e-14 0 0)
(-7.12319e-14 0 0)
(-6.2504e-14 0 0)
(-4.43261e-14 0 0)
(-2.46559e-14 0 0)
(-3.82272e-14 0 0)
(-4.2301e-14 0 0)
(-2.1032e-14 0 0)
(-4.54274e-14 0 0)
(-7.59105e-15 0 0)
(-8.21623e-14 0 0)
(-4.85556e-15 0 0)
(-7.6395e-14 0 0)
(-4.35812e-15 0 0)
(-6.91594e-14 0 0)
(-2.77467e-14 0 0)
(-3.87601e-14 0 0)
(-3.72443e-14 0 0)
(-3.75166e-14 0 0)
(-1.12859e-14 0 0)
(-1.73608e-14 0 0)
(2.43479e-14 0 0)
(2.449e-14 0 0)
(-8.26594e-15 0 0)
(1.06581e-14 0 0)
(-1.75386e-14 0 0)
(7.44885e-15 0 0)
(-1.34766e-14 0 0)
(2.67164e-14 0 0)
(5.67251e-15 0 0)
(2.67756e-14 0 0)
(5.92133e-15 0 0)
(5.77196e-14 0 0)
(-1.59871e-14 0 0)
(5.66419e-14 0 0)
(-4.60653e-15 0 0)
(3.88429e-14 0 0)
(1.03504e-14 0 0)
(4.90983e-14 0 0)
(2.60652e-14 0 0)
(4.76062e-14 0 0)
(3.47455e-14 0 0)
(1.26359e-14 0 0)
(4.07259e-14 0 0)
(1.32162e-14 0 0)
(2.16951e-14 0 0)
(-2.79715e-14 0 0)
(1.54187e-14 0 0)
(-1.87346e-14 0 0)
(-2.5094e-14 0 0)
(-9.74635e-15 0 0)
(-2.47032e-14 0 0)
(-2.29268e-14 0 0)
(-3.57759e-14 0 0)
(-9.33181e-15 0 0)
(-2.26308e-14 0 0)
(-6.78567e-15 0 0)
(-3.62371e-15 0 0)
(2.95703e-14 0 0)
(1.1499e-14 0 0)
(2.1636e-14 0 0)
(3.18087e-14 0 0)
(6.93725e-14 0 0)
(5.55408e-14 0 0)
(3.63917e-14 0 0)
(9.78298e-14 0 0)
(7.48439e-14 0 0)
(9.88482e-14 0 0)
(6.4387e-14 0 0)
(4.10103e-14 0 0)
(1.11354e-13 0 0)
(7.64426e-14 0 0)
(1.05575e-13 0 0)
(9.91089e-14 0 0)
(1.49344e-13 0 0)
(9.88484e-14 0 0)
(1.1152e-13 0 0)
(8.66626e-14 0 0)
(1.28904e-13 0 0)
(1.22509e-13 0 0)
(1.30266e-13 0 0)
(1.37052e-13 0 0)
(1.08796e-13 0 0)
(1.43293e-13 0 0)
(1.25446e-13 0 0)
(1.45093e-13 0 0)
(1.30065e-13 0 0)
(1.46253e-13 0 0)
(9.37917e-14 0 0)
(1.20271e-13 0 0)
(6.59148e-14 0 0)
(1.10098e-13 0 0)
(4.31774e-14 0 0)
(1.05575e-13 0 0)
(4.34854e-14 0 0)
(1.22497e-13 0 0)
(6.07515e-14 0 0)
(1.11354e-13 0 0)
(6.99885e-14 0 0)
(8.87349e-14 0 0)
(9.26668e-14 0 0)
(1.34873e-13 0 0)
(1.30704e-13 0 0)
(9.42654e-14 0 0)
(1.50209e-13 0 0)
(1.30633e-13 0 0)
(1.19016e-13 0 0)
(1.26216e-13 0 0)
(1.29923e-13 0 0)
(8.59048e-14 0 0)
(1.3524e-13 0 0)
(8.20796e-14 0 0)
(9.95589e-14 0 0)
(8.13453e-14 0 0)
(1.11176e-13 0 0)
(7.97347e-14 0 0)
(6.77029e-14 0 0)
(9.20034e-14 0 0)
(6.43634e-14 0 0)
(1.04142e-13 0 0)
(5.86229e-15 0 0)
(1.40355e-13 0 0)
(1.61532e-14 0 0)
(5.11354e-14 0 0)
(2.72849e-14 0 0)
(6.69212e-14 0 0)
(4.05602e-14 0 0)
(6.8141e-14 0 0)
(4.36392e-14 0 0)
(7.44648e-14 0 0)
(4.088e-14 0 0)
(5.18104e-14 0 0)
(4.54038e-14 0 0)
(7.24871e-14 0 0)
(6.69568e-14 0 0)
(4.60432e-14 0 0)
(6.37237e-14 0 0)
(-1.54067e-14 0 0)
(5.44747e-14 0 0)
(-5.9401e-14 0 0)
(9.59821e-14 0 0)
(-6.92758e-15 0 0)
(5.08392e-14 0 0)
(-1.06224e-14 0 0)
(5.31129e-14 0 0)
(-8.69218e-15 0 0)
(5.09931e-14 0 0)
(1.56556e-14 0 0)
(2.43125e-14 0 0)
(5.44756e-15 0 0)
(6.36408e-14 0 0)
(3.87245e-14 0 0)
(3.38101e-14 0 0)
(5.48302e-14 0 0)
(6.23027e-14 0 0)
(6.31436e-14 0 0)
(6.27172e-14 0 0)
(7.46306e-14 0 0)
(3.50892e-14 0 0)
(1.16505e-13 0 0)
(-1.31684e-14 0 0)
(1.29982e-13 0 0)
(2.17665e-14 0 0)
(1.1326e-13 0 0)
(3.43076e-14 0 0)
(1.4405e-13 0 0)
(5.95317e-14 0 0)
(8.27665e-14 0 0)
(3.26257e-14 0 0)
(7.64307e-14 0 0)
(3.61311e-14 0 0)
(2.28795e-14 0 0)
(2.40401e-14 0 0)
(5.83947e-14 0 0)
(1.87111e-14 0 0)
(3.25902e-14 0 0)
(2.89311e-14 0 0)
(6.78567e-14 0 0)
(4.36273e-14 0 0)
(9.98315e-15 0 0)
(2.67638e-14 0 0)
(7.42515e-15 0 0)
(1.5158e-15 0 0)
(-2.85994e-14 0 0)
(-2.45137e-14 0 0)
(-5.72815e-14 0 0)
(-4.27984e-14 0 0)
(-5.53513e-14 0 0)
(-3.42246e-14 0 0)
(-1.44299e-13 0 0)
(-7.14216e-14 0 0)
(-1.78275e-13 0 0)
(-5.10883e-14 0 0)
(-1.53252e-13 0 0)
(-6.33452e-14 0 0)
(-1.51263e-13 0 0)
(-9.4372e-14 0 0)
(-1.10335e-13 0 0)
(-8.81192e-14 0 0)
(-9.50351e-14 0 0)
(-1.02519e-13 0 0)
(-3.96957e-14 0 0)
(-5.1846e-14 0 0)
(-7.68925e-14 0 0)
(-4.73104e-14 0 0)
(-2.50112e-14 0 0)
(-5.32314e-14 0 0)
(-4.81511e-14 0 0)
(-3.95299e-14 0 0)
(-2.9985e-14 0 0)
(-9.35546e-14 0 0)
(-3.55273e-14 0 0)
(-8.48149e-14 0 0)
(-1.10373e-14 0 0)
(-9.23822e-14 0 0)
(-3.99681e-14 0 0)
(-4.43142e-14 0 0)
(-5.73526e-14 0 0)
(-1.01489e-14 0 0)
(-4.54748e-15 0 0)
(4.88615e-14 0 0)
(-3.26491e-14 0 0)
(9.37914e-14 0 0)
(-9.8265e-16 0 0)
(1.00092e-13 0 0)
(5.2971e-14 0 0)
(8.34889e-14 0 0)
(1.00388e-13 0 0)
(8.93389e-14 0 0)
(1.18388e-13 0 0)
(6.6199e-14 0 0)
(1.20615e-13 0 0)
(6.58555e-14 0 0)
(6.92306e-14 0 0)
(5.58605e-14 0 0)
(5.07209e-14 0 0)
(1.60583e-14 0 0)
(3.61548e-14 0 0)
(3.02336e-14 0 0)
(7.46248e-16 0 0)
(4.37456e-14 0 0)
(2.32114e-15 0 0)
(-1.45651e-15 0 0)
(2.0286e-14 0 0)
(-8.6568e-15 0 0)
(3.16072e-14 0 0)
(-2.47504e-14 0 0)
(3.33124e-14 0 0)
(-8.84622e-15 0 0)
(-3.37269e-14 0 0)
(3.07189e-14 0 0)
(-7.75666e-15 0 0)
(6.05736e-14 0 0)
(9.75823e-15 0 0)
(3.36678e-14 0 0)
(1.94453e-14 0 0)
(4.9205e-14 0 0)
(4.97854e-14 0 0)
(1.32114e-13 0 0)
(2.29766e-13 0 0)
(4.18818e-13 0 0)
(7.62898e-13 0 0)
(1.39671e-12 0 0)
(2.57475e-12 0 0)
(4.65538e-12 0 0)
(8.3866e-12 0 0)
(1.49854e-11 0 0)
(2.66538e-11 0 0)
(4.70182e-11 0 0)
(8.26847e-11 0 0)
(1.44282e-10 0 0)
(2.50448e-10 0 0)
(4.32131e-10 0 0)
(7.41092e-10 0 0)
(1.26334e-09 0 0)
(2.14064e-09 0 0)
(3.605e-09 0 0)
(6.03386e-09 0 0)
(1.00365e-08 0 0)
(1.65902e-08 0 0)
(2.72503e-08 0 0)
(4.44751e-08 0 0)
(7.21214e-08 0 0)
(1.16195e-07 0 0)
(1.85977e-07 0 0)
(2.95703e-07 0 0)
(4.67033e-07 0 0)
(7.32671e-07 0 0)
(1.1416e-06 0 0)
(1.76657e-06 0 0)
(2.71479e-06 0 0)
(4.14287e-06 0 0)
(6.27768e-06 0 0)
(9.44499e-06 0 0)
(1.41085e-05 0 0)
(2.09224e-05 0 0)
(3.0801e-05 0 0)
(4.50105e-05 0 0)
(6.52879e-05 0 0)
(9.39931e-05 0 0)
(0.000134301 0 0)
(0.000190439 0 0)
(0.000267982 0 0)
(0.000374201 0 0)
(0.000518483 0 0)
(0.000712815 0 0)
(0.000972333 0 0)
(0.00131594 0 0)
(0.00176698 0 0)
(0.00235394 0 0)
(0.00311115 0 0)
(0.00407955 0 0)
(0.00530734 0 0)
(0.00685054 0 0)
(0.00877351 0 0)
(0.0111493 0 0)
(0.0140596 0 0)
(0.0175949 0 0)
(0.021854 0 0)
(0.0269435 0 0)
(0.0329767 0 0)
(0.040073 0 0)
(0.0483563 0 0)
(0.0579536 0 0)
(0.0689938 0 0)
(0.0816058 0 0)
(0.0959169 0 0)
(0.112052 0 0)
(0.13013 0 0)
(0.150268 0 0)
(0.172572 0 0)
(0.197144 0 0)
(0.224077 0 0)
(0.253456 0 0)
(0.285357 0 0)
(0.31985 0 0)
(0.356994 0 0)
(0.396843 0 0)
(0.439443 0 0)
(0.484833 0 0)
(0.533048 0 0)
(0.584117 0 0)
(0.638064 0 0)
(0.694911 0 0)
(0.754675 0 0)
(0.817372 0 0)
(0.883016 0 0)
(0.951618 0 0)
(1.02319 0 0)
(1.09774 0 0)
(1.17528 0 0)
(1.25582 0 0)
(1.33936 0 0)
(1.42591 0 0)
(1.51549 0 0)
(1.6081 0 0)
(1.70375 0 0)
(1.80245 0 0)
(1.9042 0 0)
(2.00902 0 0)
(2.11692 0 0)
(2.2279 0 0)
(2.34198 0 0)
(2.45917 0 0)
(2.57947 0 0)
(2.7029 0 0)
(2.82947 0 0)
(2.95919 0 0)
(3.09208 0 0)
(3.22814 0 0)
(3.3674 0 0)
(3.50985 0 0)
(3.65552 0 0)
(3.80443 0 0)
(3.95658 0 0)
(4.11199 0 0)
(4.27068 0 0)
(4.43266 0 0)
(4.59794 0 0)
(4.76655 0 0)
(4.93851 0 0)
(5.11382 0 0)
(5.29251 0 0)
(5.47459 0 0)
(5.66008 0 0)
(5.84901 0 0)
(6.04138 0 0)
(6.23723 0 0)
(6.43656 0 0)
(6.6394 0 0)
(6.84578 0 0)
(7.05569 0 0)
(7.2692 0 0)
(7.48626 0 0)
(7.707 0 0)
(7.93125 0 0)
(8.15939 0 0)
(8.39081 0 0)
(8.62655 0 0)
(8.86511 0 0)
(9.10862 0 0)
(9.35434 0 0)
(9.60563 0 0)
(9.85841 0 0)
(10.1171 0 0)
(10.3785 0 0)
(10.6431 0 0)
(10.9113 0 0)
(11.1836 0 0)
(11.4599 0 0)
(11.7401 0 0)
(12.0242 0 0)
(12.3121 0 0)
(12.604 0 0)
(12.8999 0 0)
(13.1998 0 0)
(13.5037 0 0)
(13.8116 0 0)
(14.1235 0 0)
(14.4396 0 0)
(14.7597 0 0)
(15.0839 0 0)
(15.4123 0 0)
(15.7448 0 0)
(16.0815 0 0)
(16.4224 0 0)
(16.7676 0 0)
(17.117 0 0)
(17.4706 0 0)
(17.8286 0 0)
(18.1909 0 0)
(18.5575 0 0)
(18.9285 0 0)
(19.3039 0 0)
(19.6838 0 0)
(20.068 0 0)
(20.4567 0 0)
(20.85 0 0)
(21.2477 0 0)
(21.65 0 0)
(22.0568 0 0)
(22.4682 0 0)
(22.8843 0 0)
(23.305 0 0)
(23.7303 0 0)
(24.1604 0 0)
(24.5951 0 0)
(25.0347 0 0)
(25.4787 0 0)
(25.9283 0 0)
(26.3814 0 0)
(26.8413 0 0)
(27.3032 0 0)
(27.7744 0 0)
(28.244 0 0)
(28.7278 0 0)
(29.2039 0 0)
(29.7019 0 0)
(30.1831 0 0)
(30.6967 0 0)
(31.1822 0 0)
(31.7119 0 0)
(32.2018 0 0)
(32.7478 0 0)
(33.242 0 0)
(33.8046 0 0)
(34.303 0 0)
(34.8824 0 0)
(35.385 0 0)
(35.9815 0 0)
(36.4881 0 0)
(37.1021 0 0)
(37.6127 0 0)
(38.2444 0 0)
(38.7588 0 0)
(39.4086 0 0)
(39.9267 0 0)
(40.5949 0 0)
(41.1164 0 0)
(41.8035 0 0)
(42.3282 0 0)
(43.0345 0 0)
(43.5622 0 0)
(44.2881 0 0)
(44.8185 0 0)
(45.5645 0 0)
(46.0971 0 0)
(46.8638 0 0)
(47.3982 0 0)
(48.186 0 0)
(48.7217 0 0)
(49.5311 0 0)
(50.0677 0 0)
(50.899 0 0)
(51.4358 0 0)
(52.2892 0 0)
(52.8252 0 0)
(53.7006 0 0)
(54.2327 0 0)
(55.1293 0 0)
(55.6477 0 0)
(56.5614 0 0)
(57.0316 0 0)
(58.5365 0 0)
)
;

boundaryField
{
    sideLeft
    {
        type            symmetryPlane;
    }
    sideRight
    {
        type            calculated;
        value           uniform (58.5365 0 0);
    }
    topbottom
    {
        type            empty;
    }
    frontback
    {
        type            empty;
    }
}


// ************************************************************************* //
