/*--------------------------------*- C++ -*----------------------------------*\
| =========                 |                                                 |
| \\      /  F ield         | OpenFOAM: The Open Source CFD Toolbox           |
|  \\    /   O peration     | Version:  2.4.0                                 |
|   \\  /    A nd           | Web:      www.OpenFOAM.org                      |
|    \\/     M anipulation  |                                                 |
\*---------------------------------------------------------------------------*/
FoamFile
{
    version     2.0;
    format      ascii;
    class       volVectorField;
    location    "0.06";
    object      Ur;
}
// * * * * * * * * * * * * * * * * * * * * * * * * * * * * * * * * * * * * * //

dimensions      [0 1 -1 0 0 0 0];

internalField   nonuniform List<vector> 
1000
(
(-5.72952e-22 0 0)
(1.42109e-14 0 0)
(7.10543e-15 0 0)
(-2.13163e-14 0 0)
(7.10543e-15 0 0)
(2.13163e-14 0 0)
(2.13163e-14 0 0)
(-2.13163e-14 0 0)
(-2.84217e-14 0 0)
(3.55271e-14 0 0)
(7.10543e-15 0 0)
(-6.39488e-14 0 0)
(2.13163e-14 0 0)
(7.10543e-14 0 0)
(-3.55271e-14 0 0)
(-1.42109e-14 0 0)
(-1.42109e-14 0 0)
(-3.55271e-14 0 0)
(1.42109e-14 0 0)
(5.68434e-14 0 0)
(4.26326e-14 0 0)
(-1.42109e-14 0 0)
(7.10543e-15 0 0)
(-7.10543e-15 0 0)
(-3.73446e-22 0 0)
(2.84217e-14 0 0)
(-1.42109e-14 0 0)
(-2.13163e-14 0 0)
(1.42109e-14 0 0)
(4.26326e-14 0 0)
(4.26326e-14 0 0)
(8.90255e-22 0 0)
(-1.42109e-14 0 0)
(-7.10543e-15 0 0)
(-4.26326e-14 0 0)
(-4.26326e-14 0 0)
(-2.50685e-21 0 0)
(1.42109e-14 0 0)
(2.84217e-14 0 0)
(5.68434e-14 0 0)
(-5.68434e-14 0 0)
(-6.39488e-14 0 0)
(-1.42109e-14 0 0)
(7.10543e-15 0 0)
(6.39488e-14 0 0)
(7.10543e-15 0 0)
(-3.55271e-14 0 0)
(-4.9738e-14 0 0)
(1.42109e-14 0 0)
(4.9738e-14 0 0)
(1.42109e-14 0 0)
(3.55271e-14 0 0)
(-5.68434e-14 0 0)
(-7.10543e-14 0 0)
(-2.89565e-22 0 0)
(-3.55271e-14 0 0)
(2.84217e-14 0 0)
(7.10543e-15 0 0)
(1.42109e-14 0 0)
(4.9738e-14 0 0)
(-4.26326e-14 0 0)
(-7.10543e-14 0 0)
(-7.10543e-15 0 0)
(2.13163e-14 0 0)
(7.10543e-15 0 0)
(1.42109e-14 0 0)
(5.68434e-14 0 0)
(5.01938e-22 0 0)
(-2.13163e-14 0 0)
(3.55271e-14 0 0)
(-3.55271e-14 0 0)
(-6.39488e-14 0 0)
(-9.37876e-22 0 0)
(4.9738e-14 0 0)
(2.84217e-14 0 0)
(-1.42109e-14 0 0)
(-2.13163e-14 0 0)
(-1.42109e-14 0 0)
(2.13163e-14 0 0)
(3.55271e-14 0 0)
(7.10543e-15 0 0)
(-2.40676e-21 0 0)
(-2.84217e-14 0 0)
(-5.68434e-14 0 0)
(-4.9738e-14 0 0)
(-1.42109e-14 0 0)
(4.26326e-14 0 0)
(4.26326e-14 0 0)
(3.55271e-14 0 0)
(1.42109e-14 0 0)
(-6.39488e-14 0 0)
(4.26326e-14 0 0)
(3.55271e-14 0 0)
(-6.39488e-14 0 0)
(7.10543e-15 0 0)
(1.42109e-14 0 0)
(1.42109e-14 0 0)
(-2.13163e-14 0 0)
(-2.13163e-14 0 0)
(-7.10543e-15 0 0)
(1.42109e-14 0 0)
(1.5932e-21 0 0)
(-4.26326e-14 0 0)
(-2.11001e-21 0 0)
(2.13163e-14 0 0)
(1.42109e-14 0 0)
(-7.10543e-15 0 0)
(-1.93256e-21 0 0)
(7.10543e-14 0 0)
(3.55271e-14 0 0)
(-4.9738e-14 0 0)
(-4.26326e-14 0 0)
(-1.42109e-14 0 0)
(2.84217e-14 0 0)
(4.26326e-14 0 0)
(-1.42109e-14 0 0)
(-9.9476e-14 0 0)
(7.10543e-15 0 0)
(6.39488e-14 0 0)
(-1.42109e-14 0 0)
(-7.10543e-15 0 0)
(1.42109e-14 0 0)
(-7.10543e-15 0 0)
(1.42109e-14 0 0)
(-1.42109e-14 0 0)
(-4.9738e-14 0 0)
(2.13163e-14 0 0)
(1.42109e-14 0 0)
(1.42109e-14 0 0)
(-2.84217e-14 0 0)
(7.10543e-15 0 0)
(7.10543e-14 0 0)
(-2.13163e-14 0 0)
(8.63355e-22 0 0)
(-9.96022e-22 0 0)
(-6.39488e-14 0 0)
(1.13622e-22 0 0)
(4.9738e-14 0 0)
(2.84217e-14 0 0)
(-2.13163e-14 0 0)
(-4.26326e-14 0 0)
(1.42109e-14 0 0)
(2.84217e-14 0 0)
(-7.10543e-15 0 0)
(7.10543e-15 0 0)
(1.59604e-21 0 0)
(-2.13163e-14 0 0)
(5.68434e-14 0 0)
(-4.9738e-14 0 0)
(-5.68434e-14 0 0)
(6.39488e-14 0 0)
(-7.10543e-15 0 0)
(-3.55271e-14 0 0)
(-2.13163e-14 0 0)
(1.42109e-14 0 0)
(1.46254e-21 0 0)
(2.13163e-14 0 0)
(1.42109e-14 0 0)
(-1.42109e-14 0 0)
(-7.10543e-15 0 0)
(-2.84217e-14 0 0)
(-2.13163e-14 0 0)
(-1.513e-21 0 0)
(8.52651e-14 0 0)
(3.55271e-14 0 0)
(-7.81597e-14 0 0)
(-1.42109e-14 0 0)
(-4.9738e-14 0 0)
(-4.9738e-14 0 0)
(3.55271e-14 0 0)
(4.26326e-14 0 0)
(3.55271e-14 0 0)
(2.13163e-14 0 0)
(7.10543e-15 0 0)
(1.42109e-14 0 0)
(2.84217e-14 0 0)
(-7.10543e-15 0 0)
(2.13163e-14 0 0)
(2.13163e-14 0 0)
(-4.26326e-14 0 0)
(-4.26326e-14 0 0)
(-4.26326e-14 0 0)
(1.42109e-14 0 0)
(2.13163e-14 0 0)
(4.26326e-14 0 0)
(4.9738e-14 0 0)
(-4.26326e-14 0 0)
(-8.60514e-22 0 0)
(2.84217e-14 0 0)
(-2.84217e-14 0 0)
(-2.84217e-14 0 0)
(1.72738e-21 0 0)
(-1.42109e-14 0 0)
(7.10543e-15 0 0)
(7.10543e-15 0 0)
(1.42109e-14 0 0)
(-2.13163e-14 0 0)
(-4.26326e-14 0 0)
(7.10543e-15 0 0)
(1.42109e-14 0 0)
(-7.10543e-15 0 0)
(-6.39488e-14 0 0)
(7.10543e-15 0 0)
(7.10543e-14 0 0)
(4.9738e-14 0 0)
(4.26326e-14 0 0)
(-4.26326e-14 0 0)
(-4.26326e-14 0 0)
(4.9738e-14 0 0)
(2.13163e-14 0 0)
(-5.68434e-14 0 0)
(-6.39488e-14 0 0)
(4.26326e-14 0 0)
(9.9476e-14 0 0)
(7.10543e-15 0 0)
(1.42109e-14 0 0)
(-2.13163e-14 0 0)
(-5.68434e-14 0 0)
(4.26326e-14 0 0)
(1.42109e-14 0 0)
(1.42109e-14 0 0)
(3.55271e-14 0 0)
(7.10543e-15 0 0)
(-2.13163e-14 0 0)
(-4.26326e-14 0 0)
(1.42109e-14 0 0)
(-5.09125e-22 0 0)
(-2.13163e-14 0 0)
(1.42109e-14 0 0)
(-7.10543e-15 0 0)
(1.42109e-14 0 0)
(-7.10543e-15 0 0)
(-4.9738e-14 0 0)
(-7.78138e-22 0 0)
(1.42109e-14 0 0)
(-5.68434e-14 0 0)
(-1.42109e-14 0 0)
(6.39488e-14 0 0)
(-2.13163e-14 0 0)
(-2.13163e-14 0 0)
(6.39488e-14 0 0)
(2.84217e-14 0 0)
(-7.10543e-15 0 0)
(-7.10543e-15 0 0)
(-7.10543e-14 0 0)
(7.10543e-15 0 0)
(6.39488e-14 0 0)
(-7.10543e-15 0 0)
(-2.13163e-14 0 0)
(-4.26326e-14 0 0)
(-4.26326e-14 0 0)
(3.55271e-14 0 0)
(7.10543e-14 0 0)
(2.13163e-14 0 0)
(2.13163e-14 0 0)
(-7.10543e-14 0 0)
(-9.9476e-14 0 0)
(4.9738e-14 0 0)
(4.9738e-14 0 0)
(-2.13163e-14 0 0)
(-7.10543e-15 0 0)
(1.34541e-21 0 0)
(-1.42109e-14 0 0)
(5.68434e-14 0 0)
(4.26326e-14 0 0)
(-7.81597e-14 0 0)
(-1.42109e-14 0 0)
(4.26326e-14 0 0)
(-3.94182e-21 0 0)
(7.10543e-15 0 0)
(-1.42109e-14 0 0)
(3.55271e-14 0 0)
(2.13163e-14 0 0)
(-7.10543e-15 0 0)
(1.42109e-14 0 0)
(-5.68434e-14 0 0)
(-2.84217e-14 0 0)
(-7.10543e-15 0 0)
(-7.10543e-15 0 0)
(6.39488e-14 0 0)
(-1.42109e-14 0 0)
(-4.9738e-14 0 0)
(2.13163e-14 0 0)
(3.55271e-14 0 0)
(1.383e-21 0 0)
(-1.42109e-14 0 0)
(-2.13163e-14 0 0)
(1.75077e-21 0 0)
(2.84217e-14 0 0)
(-7.10543e-15 0 0)
(-4.26326e-14 0 0)
(-2.17216e-22 0 0)
(1.42109e-14 0 0)
(-2.84217e-14 0 0)
(-3.55271e-14 0 0)
(-1.42109e-14 0 0)
(4.26326e-14 0 0)
(6.39488e-14 0 0)
(7.10543e-15 0 0)
(-1.64584e-21 0 0)
(6.39488e-14 0 0)
(3.55271e-14 0 0)
(-7.10543e-15 0 0)
(-4.26326e-14 0 0)
(-4.9738e-14 0 0)
(1.42109e-14 0 0)
(1.42109e-14 0 0)
(-7.10543e-14 0 0)
(-1.42109e-14 0 0)
(3.55271e-14 0 0)
(-7.10543e-15 0 0)
(4.26326e-14 0 0)
(6.39488e-14 0 0)
(7.10543e-15 0 0)
(-4.26326e-14 0 0)
(-1.42109e-14 0 0)
(-7.10543e-14 0 0)
(2.84217e-14 0 0)
(7.81597e-14 0 0)
(-7.10543e-14 0 0)
(6.39488e-14 0 0)
(-4.26326e-14 0 0)
(-7.81597e-14 0 0)
(4.9738e-14 0 0)
(-7.10543e-15 0 0)
(4.9738e-14 0 0)
(-7.10543e-14 0 0)
(-4.26326e-14 0 0)
(7.10543e-14 0 0)
(7.10543e-15 0 0)
(2.84217e-14 0 0)
(-2.13163e-14 0 0)
(-1.42109e-14 0 0)
(2.84217e-14 0 0)
(-2.84217e-14 0 0)
(-7.10543e-15 0 0)
(5.68434e-14 0 0)
(7.10543e-14 0 0)
(-2.13163e-14 0 0)
(-9.9476e-14 0 0)
(-2.13163e-14 0 0)
(4.9738e-14 0 0)
(1.42109e-14 0 0)
(-1.33505e-22 0 0)
(-7.10543e-15 0 0)
(-1.42109e-14 0 0)
(2.84217e-14 0 0)
(-2.84217e-14 0 0)
(-2.13163e-14 0 0)
(9.9476e-14 0 0)
(-2.13163e-14 0 0)
(-6.39488e-14 0 0)
(7.10543e-15 0 0)
(1.42109e-14 0 0)
(7.10543e-15 0 0)
(-3.55271e-14 0 0)
(-2.84217e-14 0 0)
(-1.42109e-14 0 0)
(-2.13163e-14 0 0)
(3.55271e-14 0 0)
(7.10543e-14 0 0)
(-4.9738e-14 0 0)
(-7.81597e-14 0 0)
(2.13163e-14 0 0)
(6.39488e-14 0 0)
(-1.58535e-21 0 0)
(-4.26326e-14 0 0)
(-7.10543e-15 0 0)
(-1.42109e-14 0 0)
(-7.10543e-15 0 0)
(1.13687e-13 0 0)
(5.68434e-14 0 0)
(-8.52651e-14 0 0)
(-7.10543e-14 0 0)
(-1.42109e-14 0 0)
(7.10543e-15 0 0)
(-7.10543e-15 0 0)
(2.84217e-14 0 0)
(2.13163e-14 0 0)
(-5.68434e-14 0 0)
(-1.42109e-14 0 0)
(5.68434e-14 0 0)
(2.13163e-14 0 0)
(-7.10543e-15 0 0)
(-1.42109e-14 0 0)
(-7.10543e-15 0 0)
(4.07533e-22 0 0)
(1.42109e-14 0 0)
(1.42109e-14 0 0)
(-2.84217e-14 0 0)
(2.13163e-14 0 0)
(-5.68434e-14 0 0)
(-1.42109e-14 0 0)
(6.39488e-14 0 0)
(-7.10543e-15 0 0)
(-1.42109e-14 0 0)
(2.84217e-14 0 0)
(4.26326e-14 0 0)
(2.84217e-14 0 0)
(-3.55271e-14 0 0)
(-7.10543e-14 0 0)
(-4.28084e-22 0 0)
(4.9738e-14 0 0)
(5.68434e-14 0 0)
(-7.81597e-14 0 0)
(-1.42109e-14 0 0)
(2.13163e-14 0 0)
(-1.42109e-14 0 0)
(2.84217e-14 0 0)
(6.39488e-14 0 0)
(4.26326e-14 0 0)
(-1.13687e-13 0 0)
(-7.10543e-14 0 0)
(1.13687e-13 0 0)
(2.13163e-14 0 0)
(-3.55271e-14 0 0)
(4.26326e-14 0 0)
(-2.13163e-14 0 0)
(-4.26326e-14 0 0)
(-7.10543e-15 0 0)
(2.13163e-14 0 0)
(-3.55271e-14 0 0)
(-9.9476e-14 0 0)
(-2.13163e-14 0 0)
(7.81597e-14 0 0)
(2.13163e-14 0 0)
(7.10543e-15 0 0)
(2.13163e-14 0 0)
(-2.84217e-14 0 0)
(-2.84217e-14 0 0)
(-2.84217e-14 0 0)
(7.10543e-15 0 0)
(3.55271e-14 0 0)
(-3.55271e-14 0 0)
(-5.68434e-14 0 0)
(7.10543e-15 0 0)
(5.68434e-14 0 0)
(6.39488e-14 0 0)
(-4.26326e-14 0 0)
(1.42109e-14 0 0)
(7.10543e-15 0 0)
(-5.68434e-14 0 0)
(-4.9738e-14 0 0)
(-2.84217e-14 0 0)
(2.84217e-14 0 0)
(1.42109e-14 0 0)
(7.81597e-14 0 0)
(-3.55271e-14 0 0)
(-4.26326e-14 0 0)
(2.84217e-14 0 0)
(-2.84217e-14 0 0)
(-3.55271e-14 0 0)
(2.13163e-14 0 0)
(4.9738e-14 0 0)
(1.42109e-14 0 0)
(7.10543e-15 0 0)
(-1.42109e-14 0 0)
(-7.10543e-15 0 0)
(2.84217e-14 0 0)
(-7.10543e-15 0 0)
(-4.26326e-14 0 0)
(6.39488e-14 0 0)
(3.55271e-14 0 0)
(-2.84217e-14 0 0)
(2.13163e-14 0 0)
(-4.9738e-14 0 0)
(7.10543e-15 0 0)
(7.10543e-14 0 0)
(-3.55271e-14 0 0)
(-2.84217e-14 0 0)
(1.42109e-14 0 0)
(-7.10543e-14 0 0)
(4.26326e-14 0 0)
(5.68434e-14 0 0)
(-3.55271e-14 0 0)
(8.52651e-14 0 0)
(-1.42109e-14 0 0)
(-4.9738e-14 0 0)
(7.10543e-15 0 0)
(-1.42109e-14 0 0)
(-1.42109e-14 0 0)
(7.10543e-15 0 0)
(-1.42109e-14 0 0)
(4.9738e-14 0 0)
(3.55271e-14 0 0)
(2.84217e-14 0 0)
(9.23706e-14 0 0)
(-7.10543e-14 0 0)
(-6.39488e-14 0 0)
(4.26326e-14 0 0)
(-1.42109e-14 0 0)
(1.42109e-14 0 0)
(-1.42109e-14 0 0)
(-1.42109e-14 0 0)
(-1.43196e-21 0 0)
(-3.55271e-14 0 0)
(3.55271e-14 0 0)
(7.10543e-15 0 0)
(-1.42109e-14 0 0)
(8.03703e-22 0 0)
(1.42109e-14 0 0)
(4.26326e-14 0 0)
(-2.13163e-14 0 0)
(-2.13163e-14 0 0)
(-1.22895e-21 0 0)
(-1.42109e-14 0 0)
(2.84217e-14 0 0)
(7.10543e-15 0 0)
(-2.13163e-14 0 0)
(-1.42109e-14 0 0)
(-2.13163e-14 0 0)
(-5.68434e-14 0 0)
(7.10543e-14 0 0)
(9.23706e-14 0 0)
(-4.9738e-14 0 0)
(-1.63147e-21 0 0)
(4.26326e-14 0 0)
(-1.42109e-14 0 0)
(-4.26326e-14 0 0)
(2.84217e-14 0 0)
(3.55271e-14 0 0)
(7.10543e-15 0 0)
(-1.42109e-14 0 0)
(-4.9738e-14 0 0)
(1.42494e-21 0 0)
(3.55271e-14 0 0)
(2.84217e-14 0 0)
(-1.42109e-14 0 0)
(-4.26326e-14 0 0)
(1.99004e-21 0 0)
(4.26326e-14 0 0)
(-7.10543e-15 0 0)
(-4.26326e-14 0 0)
(-3.55271e-14 0 0)
(-2.76868e-22 0 0)
(1.36178e-21 0 0)
(-1.42109e-14 0 0)
(7.10543e-15 0 0)
(4.9738e-14 0 0)
(4.9738e-14 0 0)
(-5.68434e-14 0 0)
(-4.9738e-14 0 0)
(7.10543e-15 0 0)
(9.23706e-14 0 0)
(2.13163e-14 0 0)
(-2.84217e-14 0 0)
(7.10543e-15 0 0)
(-2.84217e-14 0 0)
(-3.55271e-14 0 0)
(1.42109e-14 0 0)
(6.39488e-14 0 0)
(-2.13163e-14 0 0)
(-2.13163e-14 0 0)
(-2.84217e-14 0 0)
(-1.42109e-14 0 0)
(4.26326e-14 0 0)
(-7.10543e-15 0 0)
(2.54528e-21 0 0)
(5.68434e-14 0 0)
(-1.42109e-14 0 0)
(-1.42109e-14 0 0)
(1.42109e-14 0 0)
(-7.10543e-15 0 0)
(7.10543e-15 0 0)
(1.42109e-14 0 0)
(2.13163e-14 0 0)
(-4.9738e-14 0 0)
(-3.55271e-14 0 0)
(7.81597e-14 0 0)
(2.13163e-14 0 0)
(2.13163e-14 0 0)
(4.26326e-14 0 0)
(-4.9738e-14 0 0)
(1.5897e-21 0 0)
(-7.10543e-15 0 0)
(-4.26326e-14 0 0)
(1.42109e-14 0 0)
(2.13163e-14 0 0)
(-1.42109e-14 0 0)
(-4.26326e-14 0 0)
(-7.10543e-15 0 0)
(2.84217e-14 0 0)
(1.42109e-14 0 0)
(-1.42109e-14 0 0)
(-7.10543e-15 0 0)
(-7.10543e-15 0 0)
(2.84217e-14 0 0)
(3.55271e-14 0 0)
(-7.81597e-14 0 0)
(-2.13163e-14 0 0)
(5.68434e-14 0 0)
(3.55271e-14 0 0)
(7.10543e-15 0 0)
(-1.42109e-14 0 0)
(7.10543e-15 0 0)
(-4.26326e-14 0 0)
(2.13163e-14 0 0)
(2.13163e-14 0 0)
(2.13163e-14 0 0)
(4.26326e-14 0 0)
(-3.55271e-14 0 0)
(-3.55271e-14 0 0)
(-8.52651e-14 0 0)
(7.10543e-15 0 0)
(1.13687e-13 0 0)
(2.13163e-14 0 0)
(-1.42109e-14 0 0)
(-2.84217e-14 0 0)
(-2.13163e-14 0 0)
(4.9738e-14 0 0)
(2.84217e-14 0 0)
(-1.13687e-13 0 0)
(-1.42109e-14 0 0)
(7.81597e-14 0 0)
(7.10543e-15 0 0)
(-2.13163e-14 0 0)
(1.36095e-21 0 0)
(2.84217e-14 0 0)
(7.10543e-15 0 0)
(-3.55271e-14 0 0)
(-2.84217e-14 0 0)
(1.06581e-13 0 0)
(3.55271e-14 0 0)
(-4.9738e-14 0 0)
(-2.13163e-14 0 0)
(-7.10543e-15 0 0)
(-6.33271e-22 0 0)
(-7.10543e-15 0 0)
(2.84217e-14 0 0)
(2.13163e-14 0 0)
(2.84217e-14 0 0)
(2.02764e-21 0 0)
(-3.55271e-14 0 0)
(-8.97441e-22 0 0)
(-1.42109e-14 0 0)
(6.79557e-22 0 0)
(-7.10543e-15 0 0)
(-7.10543e-15 0 0)
(2.84217e-14 0 0)
(-3.55271e-14 0 0)
(-1.42109e-14 0 0)
(2.84217e-14 0 0)
(-2.13163e-14 0 0)
(1.42109e-14 0 0)
(2.13163e-14 0 0)
(7.10543e-15 0 0)
(2.13163e-14 0 0)
(1.42109e-14 0 0)
(-2.84217e-14 0 0)
(-7.10543e-15 0 0)
(2.13163e-14 0 0)
(5.68434e-14 0 0)
(5.68434e-14 0 0)
(-5.68434e-14 0 0)
(-5.68434e-14 0 0)
(-7.10543e-15 0 0)
(5.68434e-14 0 0)
(3.55271e-14 0 0)
(-2.84217e-14 0 0)
(2.13163e-14 0 0)
(-7.10543e-15 0 0)
(-1.42109e-14 0 0)
(2.13163e-14 0 0)
(-4.26326e-14 0 0)
(-3.55271e-14 0 0)
(-7.10543e-15 0 0)
(2.84217e-14 0 0)
(3.55271e-14 0 0)
(-7.10543e-15 0 0)
(3.55271e-14 0 0)
(9.4573e-22 0 0)
(-6.39488e-14 0 0)
(7.10543e-15 0 0)
(7.10543e-15 0 0)
(-7.10543e-15 0 0)
(3.55271e-14 0 0)
(-7.10543e-15 0 0)
(-9.23706e-14 0 0)
(-2.13163e-14 0 0)
(7.10543e-14 0 0)
(4.26326e-14 0 0)
(-4.26326e-14 0 0)
(-3.55271e-14 0 0)
(2.13163e-14 0 0)
(4.26326e-14 0 0)
(3.55271e-14 0 0)
(-4.9738e-14 0 0)
(-1.42109e-14 0 0)
(1.42109e-14 0 0)
(1.42109e-14 0 0)
(7.10543e-15 0 0)
(-1.93123e-21 0 0)
(4.26326e-14 0 0)
(-1.42109e-14 0 0)
(-2.84217e-14 0 0)
(2.13163e-14 0 0)
(-3.55271e-14 0 0)
(7.10543e-15 0 0)
(1.42109e-14 0 0)
(1.42109e-14 0 0)
(2.13163e-14 0 0)
(-7.10543e-14 0 0)
(-4.9738e-14 0 0)
(4.9738e-14 0 0)
(2.84217e-14 0 0)
(-7.10543e-15 0 0)
(1.42109e-14 0 0)
(2.13163e-14 0 0)
(-2.84217e-14 0 0)
(-1.42109e-14 0 0)
(3.55271e-14 0 0)
(-2.13163e-14 0 0)
(-2.84217e-14 0 0)
(2.13163e-14 0 0)
(-7.10543e-15 0 0)
(-4.26326e-14 0 0)
(-3.55271e-14 0 0)
(7.10543e-15 0 0)
(6.39488e-14 0 0)
(-1.42109e-14 0 0)
(-2.84217e-14 0 0)
(1.42109e-14 0 0)
(-3.55271e-14 0 0)
(3.55271e-14 0 0)
(4.26326e-14 0 0)
(-4.9738e-14 0 0)
(-3.55271e-14 0 0)
(-1.22393e-21 0 0)
(2.84217e-14 0 0)
(-1.6308e-21 0 0)
(-1.42109e-14 0 0)
(-3.55271e-14 0 0)
(-1.42109e-14 0 0)
(-7.10543e-15 0 0)
(-2.84217e-14 0 0)
(4.9738e-14 0 0)
(7.81597e-14 0 0)
(1.42109e-14 0 0)
(-2.63467e-21 0 0)
(2.13163e-14 0 0)
(-2.13163e-14 0 0)
(-4.26326e-14 0 0)
(-3.55271e-14 0 0)
(-2.84217e-14 0 0)
(2.13163e-14 0 0)
(4.26326e-14 0 0)
(-6.39488e-14 0 0)
(-4.9738e-14 0 0)
(4.26326e-14 0 0)
(2.84217e-14 0 0)
(9.9476e-14 0 0)
(2.84217e-14 0 0)
(-3.55271e-14 0 0)
(3.55272e-14 0 0)
(9.94761e-14 0 0)
(2.20268e-13 0 0)
(2.91323e-13 0 0)
(5.54224e-13 0 0)
(1.02318e-12 0 0)
(1.74794e-12 0 0)
(3.12639e-12 0 0)
(5.42855e-12 0 0)
(9.39338e-12 0 0)
(1.61364e-11 0 0)
(2.75549e-11 0 0)
(4.65974e-11 0 0)
(7.84369e-11 0 0)
(1.31465e-10 0 0)
(2.1862e-10 0 0)
(3.6107e-10 0 0)
(5.92224e-10 0 0)
(9.65003e-10 0 0)
(1.56174e-09 0 0)
(2.50956e-09 0 0)
(4.00408e-09 0 0)
(6.34286e-09 0 0)
(9.97489e-09 0 0)
(1.55714e-08 0 0)
(2.41265e-08 0 0)
(3.7099e-08 0 0)
(5.66093e-08 0 0)
(8.57077e-08 0 0)
(1.28738e-07 0 0)
(1.91823e-07 0 0)
(2.83494e-07 0 0)
(4.15508e-07 0 0)
(6.03882e-07 0 0)
(8.70162e-07 0 0)
(1.24297e-06 0 0)
(1.75983e-06 0 0)
(2.46922e-06 0 0)
(3.43288e-06 0 0)
(4.72817e-06 0 0)
(6.4504e-06 0 0)
(8.71487e-06 0 0)
(1.16582e-05 0 0)
(1.54388e-05 0 0)
(2.02357e-05 0 0)
(2.62453e-05 0 0)
(3.36757e-05 0 0)
(4.27382e-05 0 0)
(5.36351e-05 0 0)
(6.65442e-05 0 0)
(8.16008e-05 0 0)
(9.88769e-05 0 0)
(0.00011836 0 0)
(0.000139931 0 0)
(0.000163349 0 0)
(0.000188237 0 0)
(0.000214081 0 0)
(0.000240233 0 0)
(0.000265931 0 0)
(0.000290328 0 0)
(0.000312532 0 0)
(0.000331658 0 0)
(0.000346876 0 0)
(0.00035747 0 0)
(0.000362882 0 0)
(0.000362755 0 0)
(0.000356955 0 0)
(0.000345582 0 0)
(0.000328965 0 0)
(0.000307636 0 0)
(0.000282297 0 0)
(0.000253772 0 0)
(0.000222962 0 0)
(0.000190787 0 0)
(0.000158145 0 0)
(0.000125866 0 0)
(9.46797e-05 0 0)
(6.5196e-05 0 0)
(3.78879e-05 0 0)
(1.30903e-05 0 0)
(-8.99554e-06 0 0)
(-2.82907e-05 0 0)
(-4.48218e-05 0 0)
(-5.87022e-05 0 0)
(-7.01107e-05 0 0)
(-7.92733e-05 0 0)
(-8.64429e-05 0 0)
(-9.18827e-05 0 0)
(-9.5852e-05 0 0)
(-9.85956e-05 0 0)
(-0.000100337 0 0)
(-0.000101275 0 0)
(-0.00010158 0 0)
(-0.000101396 0 0)
(-0.00010084 0 0)
(-0.000100008 0 0)
(-9.89748e-05 0 0)
(-9.77982e-05 0 0)
(-9.65227e-05 0 0)
(-9.51819e-05 0 0)
(-9.38007e-05 0 0)
(-9.2398e-05 0 0)
(-9.09876e-05 0 0)
(-8.95799e-05 0 0)
(-8.81829e-05 0 0)
(-8.68026e-05 0 0)
(-8.54438e-05 0 0)
(-8.41102e-05 0 0)
(-8.28048e-05 0 0)
(-8.15301e-05 0 0)
(-8.0288e-05 0 0)
(-7.90799e-05 0 0)
(-7.7907e-05 0 0)
(-7.677e-05 0 0)
(-7.56694e-05 0 0)
(-7.4605e-05 0 0)
(-7.35768e-05 0 0)
(-7.25841e-05 0 0)
(-7.16262e-05 0 0)
(-7.07023e-05 0 0)
(-6.98115e-05 0 0)
(-6.8953e-05 0 0)
(-6.81261e-05 0 0)
(-6.73306e-05 0 0)
(-6.65662e-05 0 0)
(-6.58332e-05 0 0)
(-6.51317e-05 0 0)
(-6.44619e-05 0 0)
(-6.38242e-05 0 0)
(-6.32166e-05 0 0)
(-6.26412e-05 0 0)
(-6.20885e-05 0 0)
(-6.15684e-05 0 0)
(-6.10566e-05 0 0)
(-6.05679e-05 0 0)
(-6.0107e-05 0 0)
(-5.95506e-05 0 0)
(-5.92643e-05 0 0)
(-5.84193e-05 0 0)
(-5.84478e-05 0 0)
(-5.73452e-05 0 0)
(-5.73469e-05 0 0)
(-5.6463e-05 0 0)
(-5.64111e-05 0 0)
(-5.61847e-05 0 0)
(-5.59536e-05 0 0)
(-4.65031e-05 0 0)
(-3.69465e-05 0 0)
(-4.3228e-05 0 0)
(-4.63365e-05 0 0)
(-4.62258e-05 0 0)
(-4.61096e-05 0 0)
(-4.577e-05 0 0)
(-4.54918e-05 0 0)
(-4.52928e-05 0 0)
(-4.50751e-05 0 0)
(-4.48093e-05 0 0)
(-4.44931e-05 0 0)
(-4.41069e-05 0 0)
(-4.36462e-05 0 0)
(-4.3135e-05 0 0)
(-4.26029e-05 0 0)
(-4.20688e-05 0 0)
(-4.15422e-05 0 0)
(-4.10277e-05 0 0)
(-4.0527e-05 0 0)
(-4.00392e-05 0 0)
(-3.95617e-05 0 0)
(-3.90914e-05 0 0)
(-3.86248e-05 0 0)
(-3.81589e-05 0 0)
(-3.76914e-05 0 0)
(-3.72205e-05 0 0)
(-3.67459e-05 0 0)
(-3.62676e-05 0 0)
(-3.57873e-05 0 0)
(-3.53051e-05 0 0)
(-3.48251e-05 0 0)
(-3.43428e-05 0 0)
(-3.38696e-05 0 0)
(-3.33839e-05 0 0)
(-3.29262e-05 0 0)
(-3.24198e-05 0 0)
(-3.20038e-05 0 0)
(-3.14325e-05 0 0)
(-3.11308e-05 0 0)
(-3.03949e-05 0 0)
(-3.03605e-05 0 0)
(-2.92719e-05 0 0)
(-2.97377e-05 0 0)
(-2.80706e-05 0 0)
(-2.91947e-05 0 0)
(-2.69819e-05 0 0)
(-2.83899e-05 0 0)
(-2.65176e-05 0 0)
(-2.67575e-05 0 0)
(-2.72507e-05 0 0)
(-2.43689e-05 0 0)
(-2.7993e-05 0 0)
(-2.26351e-05 0 0)
(-1.48167e-05 0 0)
(-3.25243e-05 0 0)
(-3.77327e-05 0 0)
(-2.35558e-05 0 0)
(-1.43932e-05 0 0)
(-1.95861e-05 0 0)
(-2.3771e-05 0 0)
(-3.33704e-05 0 0)
(-9.4395e-06 0 0)
(-9.6664e-06 0 0)
(-2.92482e-05 0 0)
(-2.78456e-05 0 0)
(-1.37714e-05 0 0)
(-1.64304e-05 0 0)
(-2.09132e-05 0 0)
(-2.03444e-05 0 0)
(-1.66106e-05 0 0)
(-1.71015e-05 0 0)
(-1.73675e-05 0 0)
(-1.80404e-05 0 0)
(-1.58029e-05 0 0)
(-1.73839e-05 0 0)
(-1.5114e-05 0 0)
(-1.61868e-05 0 0)
(-1.4618e-05 0 0)
(-1.55459e-05 0 0)
(-1.38895e-05 0 0)
(-1.46871e-05 0 0)
(-1.2898e-05 0 0)
(-1.42898e-05 0 0)
(-1.20377e-05 0 0)
(-6.96468e-06 0 0)
(-1.81998e-05 0 0)
(-1.16707e-05 0 0)
(-1.15397e-05 0 0)
(-1.17561e-05 0 0)
(-1.18941e-05 0 0)
(-1.12391e-05 0 0)
(-1.02824e-05 0 0)
(-1.09966e-05 0 0)
(-1.38596e-05 0 0)
(-3.51653e-05 0 0)
(-0.000120045 0 0)
(-0.000356358 0 0)
(-0.00125767 0 0)
(-0.00233002 0 0)
(0.00323691 0 0)
)
;

boundaryField
{
    sideLeft
    {
        type            symmetryPlane;
    }
    sideRight
    {
        type            calculated;
        value           uniform (-0.404907 0 0);
    }
    topbottom
    {
        type            empty;
    }
    frontback
    {
        type            empty;
    }
}


// ************************************************************************* //
