/*--------------------------------*- C++ -*----------------------------------*\
| =========                 |                                                 |
| \\      /  F ield         | OpenFOAM: The Open Source CFD Toolbox           |
|  \\    /   O peration     | Version:  2.4.0                                 |
|   \\  /    A nd           | Web:      www.OpenFOAM.org                      |
|    \\/     M anipulation  |                                                 |
\*---------------------------------------------------------------------------*/
FoamFile
{
    version     2.0;
    format      ascii;
    class       volScalarField;
    location    "0.13";
    object      p;
}
// * * * * * * * * * * * * * * * * * * * * * * * * * * * * * * * * * * * * * //

dimensions      [1 -1 -2 0 0 0 0];

internalField   nonuniform List<scalar> 
1000
(
5e+06
5e+06
5e+06
5e+06
5e+06
5e+06
5e+06
5e+06
5e+06
5e+06
5e+06
5e+06
5e+06
5e+06
5e+06
5e+06
5e+06
5e+06
5e+06
5e+06
5e+06
5e+06
5e+06
5e+06
5e+06
5e+06
5e+06
5e+06
5e+06
5e+06
5e+06
5e+06
5e+06
5e+06
5e+06
5e+06
5e+06
5e+06
5e+06
5e+06
5e+06
5e+06
5e+06
5e+06
5e+06
5e+06
5e+06
5e+06
5e+06
5e+06
5e+06
5e+06
5e+06
5e+06
5e+06
5e+06
5e+06
5e+06
5e+06
5e+06
5e+06
5e+06
5e+06
5e+06
5e+06
5e+06
5e+06
5e+06
5e+06
5e+06
5e+06
5e+06
5e+06
5e+06
5e+06
5e+06
5e+06
5e+06
5e+06
5e+06
5e+06
5e+06
5e+06
5e+06
5e+06
5e+06
5e+06
5e+06
5e+06
5e+06
5e+06
5e+06
5e+06
5e+06
5e+06
5e+06
5e+06
5e+06
5e+06
5e+06
5e+06
5e+06
5e+06
5e+06
5e+06
5e+06
5e+06
5e+06
5e+06
5e+06
5e+06
5e+06
5e+06
5e+06
5e+06
5e+06
5e+06
5e+06
5e+06
5e+06
5e+06
5e+06
5e+06
5e+06
5e+06
5e+06
5e+06
5e+06
5e+06
5e+06
5e+06
5e+06
5e+06
5e+06
5e+06
5e+06
5e+06
5e+06
5e+06
5e+06
5e+06
5e+06
5e+06
5e+06
5e+06
5e+06
5e+06
5e+06
5e+06
5e+06
5e+06
5e+06
5e+06
5e+06
5e+06
5e+06
5e+06
5e+06
5e+06
5e+06
5e+06
5e+06
5e+06
5e+06
5e+06
5e+06
5e+06
5e+06
5e+06
5e+06
5e+06
5e+06
5e+06
5e+06
5e+06
5e+06
5e+06
5e+06
5e+06
5e+06
5e+06
5e+06
5e+06
5e+06
5e+06
5e+06
5e+06
5e+06
5e+06
5e+06
5e+06
5e+06
5e+06
5e+06
5e+06
5e+06
5e+06
5e+06
5e+06
5e+06
5e+06
5e+06
5e+06
5e+06
5e+06
5e+06
5e+06
5e+06
5e+06
5e+06
5e+06
5e+06
5e+06
5e+06
5e+06
5e+06
5e+06
5e+06
5e+06
5e+06
5e+06
5e+06
5e+06
5e+06
5e+06
5e+06
5e+06
5e+06
5e+06
5e+06
5e+06
5e+06
5e+06
5e+06
5e+06
5e+06
5e+06
5e+06
5e+06
5e+06
5e+06
5e+06
5e+06
5e+06
5e+06
5e+06
5e+06
5e+06
5e+06
5e+06
5e+06
5e+06
5e+06
5e+06
5e+06
5e+06
5e+06
5e+06
5e+06
5e+06
5e+06
5e+06
5e+06
5e+06
5e+06
5e+06
5e+06
5e+06
5e+06
5e+06
5e+06
5e+06
5e+06
5e+06
5e+06
5e+06
5e+06
5e+06
5e+06
5e+06
5e+06
5e+06
5e+06
5e+06
5e+06
5e+06
5e+06
5e+06
5e+06
5e+06
5e+06
5e+06
5e+06
5e+06
5e+06
5e+06
5e+06
5e+06
5e+06
5e+06
5e+06
5e+06
5e+06
5e+06
5e+06
5e+06
5e+06
5e+06
5e+06
5e+06
5e+06
5e+06
5e+06
5e+06
5e+06
5e+06
5e+06
5e+06
5e+06
5e+06
5e+06
5e+06
5e+06
5e+06
5e+06
5e+06
5e+06
5e+06
5e+06
5e+06
5e+06
5e+06
5e+06
5e+06
5e+06
5e+06
5e+06
5e+06
5e+06
5e+06
5e+06
5e+06
5e+06
5e+06
5e+06
5e+06
5e+06
5e+06
5e+06
5e+06
5e+06
5e+06
5e+06
5e+06
5e+06
5e+06
5e+06
5e+06
5e+06
5e+06
5e+06
5e+06
5e+06
5e+06
5e+06
5e+06
5e+06
5e+06
5e+06
5e+06
5e+06
5e+06
5e+06
5e+06
5e+06
5e+06
5e+06
5e+06
5e+06
5e+06
5e+06
5e+06
5e+06
5e+06
5e+06
5e+06
5e+06
5e+06
5e+06
5e+06
5e+06
5e+06
5e+06
5e+06
5e+06
5e+06
5e+06
5e+06
5e+06
5e+06
5e+06
5e+06
5e+06
5e+06
5e+06
5e+06
5e+06
5e+06
5e+06
5e+06
5e+06
5e+06
5e+06
5e+06
5e+06
5e+06
5e+06
5e+06
5e+06
5e+06
5e+06
5e+06
5e+06
5e+06
5e+06
5e+06
5e+06
5e+06
5e+06
5e+06
5e+06
5e+06
5e+06
5e+06
5e+06
5e+06
5e+06
5e+06
5e+06
5e+06
5e+06
5e+06
5e+06
5e+06
5e+06
5e+06
5e+06
5e+06
5e+06
5e+06
5e+06
5e+06
5e+06
5e+06
5e+06
5e+06
5e+06
5e+06
5e+06
5e+06
5e+06
5e+06
5e+06
5e+06
5e+06
5e+06
5e+06
5e+06
5e+06
5e+06
5e+06
5e+06
5e+06
5e+06
5e+06
5e+06
5e+06
5e+06
5e+06
5e+06
5e+06
5e+06
5e+06
5e+06
5e+06
5e+06
5e+06
5e+06
5e+06
5e+06
5e+06
5e+06
5e+06
5e+06
5e+06
5e+06
5e+06
5e+06
5e+06
5e+06
5e+06
5e+06
5e+06
5e+06
5e+06
5e+06
5e+06
5e+06
5e+06
5e+06
5e+06
5e+06
5e+06
5e+06
5e+06
5e+06
5e+06
5e+06
5e+06
5e+06
5e+06
5e+06
5e+06
5e+06
5e+06
5e+06
5e+06
5e+06
5e+06
5e+06
5e+06
5e+06
5e+06
5e+06
5e+06
5e+06
5e+06
5e+06
5e+06
5e+06
5e+06
5e+06
5e+06
5e+06
5e+06
5e+06
5e+06
5e+06
5e+06
5e+06
5e+06
5e+06
5e+06
5e+06
5e+06
5e+06
5e+06
5e+06
5e+06
5e+06
4.99999e+06
4.99999e+06
4.99999e+06
4.99999e+06
4.99998e+06
4.99998e+06
4.99997e+06
4.99996e+06
4.99995e+06
4.99993e+06
4.99991e+06
4.99989e+06
4.99986e+06
4.99982e+06
4.99977e+06
4.99971e+06
4.99964e+06
4.99954e+06
4.99943e+06
4.99929e+06
4.99913e+06
4.99893e+06
4.99869e+06
4.9984e+06
4.99806e+06
4.99766e+06
4.99719e+06
4.99664e+06
4.996e+06
4.99526e+06
4.99441e+06
4.99344e+06
4.99233e+06
4.99108e+06
4.98967e+06
4.98809e+06
4.98633e+06
4.98438e+06
4.98223e+06
4.97986e+06
4.97728e+06
4.97446e+06
4.97142e+06
4.96813e+06
4.9646e+06
4.96083e+06
4.95681e+06
4.95254e+06
4.94803e+06
4.94329e+06
4.9383e+06
4.93309e+06
4.92766e+06
4.92201e+06
4.91615e+06
4.9101e+06
4.90386e+06
4.89744e+06
4.89086e+06
4.88412e+06
4.87723e+06
4.87022e+06
4.86308e+06
4.85582e+06
4.84847e+06
4.84102e+06
4.83349e+06
4.82589e+06
4.81822e+06
4.81049e+06
4.80271e+06
4.79489e+06
4.78704e+06
4.77915e+06
4.77124e+06
4.76331e+06
4.75536e+06
4.74741e+06
4.73944e+06
4.73147e+06
4.7235e+06
4.71553e+06
4.70757e+06
4.69961e+06
4.69165e+06
4.68371e+06
4.67577e+06
4.66784e+06
4.65993e+06
4.65202e+06
4.64413e+06
4.63625e+06
4.62839e+06
4.62054e+06
4.6127e+06
4.60487e+06
4.59706e+06
4.58926e+06
4.58147e+06
4.5737e+06
4.56594e+06
4.55819e+06
4.55046e+06
4.54274e+06
4.53503e+06
4.52733e+06
4.51964e+06
4.51196e+06
4.5043e+06
4.49664e+06
4.489e+06
4.48137e+06
4.47375e+06
4.46613e+06
4.45853e+06
4.45094e+06
4.44335e+06
4.43578e+06
4.42821e+06
4.42065e+06
4.4131e+06
4.40556e+06
4.39803e+06
4.3905e+06
4.38299e+06
4.37548e+06
4.36797e+06
4.36048e+06
4.35299e+06
4.34551e+06
4.33803e+06
4.33057e+06
4.3231e+06
4.31565e+06
4.3082e+06
4.30076e+06
4.29332e+06
4.28589e+06
4.27847e+06
4.27105e+06
4.26364e+06
4.25623e+06
4.24883e+06
4.24143e+06
4.23404e+06
4.22666e+06
4.21928e+06
4.21191e+06
4.20454e+06
4.19718e+06
4.18982e+06
4.18247e+06
4.17512e+06
4.16778e+06
4.16045e+06
4.15312e+06
4.14579e+06
4.13847e+06
4.13115e+06
4.12384e+06
4.11653e+06
4.10923e+06
4.10193e+06
4.09464e+06
4.08735e+06
4.08007e+06
4.07279e+06
4.06551e+06
4.05824e+06
4.05097e+06
4.0437e+06
4.03644e+06
4.02918e+06
4.02193e+06
4.01468e+06
4.00743e+06
4.00018e+06
3.99294e+06
3.9857e+06
3.97846e+06
3.97122e+06
3.96399e+06
3.95676e+06
3.94953e+06
3.9423e+06
3.93508e+06
3.92786e+06
3.92063e+06
3.91341e+06
3.90619e+06
3.89897e+06
3.89176e+06
3.88454e+06
3.87733e+06
3.87011e+06
3.8629e+06
3.85568e+06
3.84847e+06
3.84126e+06
3.83404e+06
3.82683e+06
3.81962e+06
3.8124e+06
3.80519e+06
3.79798e+06
3.79076e+06
3.78355e+06
3.77633e+06
3.76912e+06
3.7619e+06
3.75468e+06
3.74746e+06
3.74024e+06
3.73302e+06
3.7258e+06
3.71857e+06
3.71134e+06
3.70411e+06
3.69688e+06
3.68965e+06
3.68241e+06
3.67517e+06
3.66793e+06
3.66069e+06
3.65344e+06
3.64619e+06
3.63893e+06
3.63167e+06
3.62441e+06
3.61715e+06
3.60988e+06
3.6026e+06
3.59532e+06
3.58804e+06
3.58075e+06
3.57346e+06
3.56616e+06
3.55885e+06
3.55154e+06
3.54423e+06
3.5369e+06
3.52958e+06
3.52224e+06
3.5149e+06
3.50755e+06
3.5002e+06
3.49283e+06
3.48546e+06
3.47808e+06
3.4707e+06
3.4633e+06
3.4559e+06
3.44848e+06
3.44106e+06
3.43363e+06
3.42619e+06
3.41874e+06
3.41128e+06
3.40381e+06
3.39633e+06
3.38883e+06
3.38133e+06
3.37381e+06
3.36628e+06
3.35874e+06
3.35118e+06
3.34361e+06
3.33603e+06
3.32844e+06
3.32083e+06
3.3132e+06
3.30556e+06
3.2979e+06
3.29023e+06
3.28254e+06
3.27484e+06
3.26711e+06
3.25937e+06
3.2516e+06
3.24382e+06
3.23602e+06
3.2282e+06
3.22035e+06
3.21249e+06
3.20461e+06
3.1967e+06
3.18879e+06
3.18083e+06
3.17284e+06
3.16483e+06
3.15679e+06
3.14873e+06
3.14064e+06
3.13252e+06
3.12437e+06
3.11619e+06
3.10798e+06
3.09974e+06
3.09146e+06
3.08314e+06
3.0748e+06
3.06641e+06
3.05798e+06
3.04952e+06
3.04101e+06
3.03246e+06
3.02387e+06
3.01523e+06
3.00654e+06
2.99781e+06
2.98902e+06
2.98018e+06
2.97129e+06
2.96233e+06
2.95332e+06
2.94425e+06
2.93512e+06
2.92591e+06
2.91665e+06
2.9073e+06
2.89789e+06
2.8884e+06
2.87882e+06
2.86916e+06
2.85941e+06
2.84957e+06
2.83963e+06
2.82958e+06
2.81943e+06
2.80918e+06
2.79881e+06
2.78832e+06
2.77772e+06
2.767e+06
2.75618e+06
2.74525e+06
2.73423e+06
2.72315e+06
2.71203e+06
2.70094e+06
2.68991e+06
2.6791e+06
2.66864e+06
2.65853e+06
2.64873e+06
2.63915e+06
2.62972e+06
2.62034e+06
2.61095e+06
2.60151e+06
2.59199e+06
2.58239e+06
2.57271e+06
2.56299e+06
2.55323e+06
2.54346e+06
2.5337e+06
2.52394e+06
2.51421e+06
2.5045e+06
2.4948e+06
2.48511e+06
2.47543e+06
2.46574e+06
2.45606e+06
2.44638e+06
2.43671e+06
2.42704e+06
2.41739e+06
2.40776e+06
2.39815e+06
2.38855e+06
2.37896e+06
2.36939e+06
2.35983e+06
2.35029e+06
2.34077e+06
2.33128e+06
2.32183e+06
2.31242e+06
2.30305e+06
2.29371e+06
2.28441e+06
2.27513e+06
2.26587e+06
2.25664e+06
2.24743e+06
2.23825e+06
2.22912e+06
2.22003e+06
2.211e+06
2.20204e+06
2.19316e+06
2.18436e+06
2.17564e+06
2.167e+06
2.15843e+06
2.14992e+06
2.14147e+06
2.1331e+06
2.12478e+06
2.11653e+06
2.10836e+06
2.10027e+06
2.0923e+06
2.08446e+06
2.07679e+06
2.0693e+06
2.06201e+06
2.05496e+06
2.04818e+06
2.0417e+06
2.03554e+06
2.02972e+06
2.02426e+06
2.01916e+06
2.01444e+06
2.0101e+06
2.00601e+06
2.00198e+06
1.99816e+06
1.99514e+06
1.99321e+06
1.99247e+06
1.99288e+06
1.99452e+06
1.99744e+06
2.00172e+06
2.00742e+06
2.01465e+06
2.02345e+06
2.0339e+06
2.04598e+06
2.05965e+06
2.07469e+06
2.09078e+06
2.10724e+06
2.12322e+06
2.13792e+06
2.14492e+06
)
;

boundaryField
{
    sideLeft
    {
        type            symmetryPlane;
    }
    sideRight
    {
        type            myWaveTransmissive;
        phi             phi.air;
        rho             rho.air;
        psi             thermo:psi.air;
        gamma           1.4;
        fieldInf        100000;
        lInf            10;
        value           uniform 2.13985e+06;
    }
    topbottom
    {
        type            empty;
    }
    frontback
    {
        type            empty;
    }
}


// ************************************************************************* //
