/*--------------------------------*- C++ -*----------------------------------*\
| =========                 |                                                 |
| \\      /  F ield         | OpenFOAM: The Open Source CFD Toolbox           |
|  \\    /   O peration     | Version:  2.4.0                                 |
|   \\  /    A nd           | Web:      www.OpenFOAM.org                      |
|    \\/     M anipulation  |                                                 |
\*---------------------------------------------------------------------------*/
FoamFile
{
    version     2.0;
    format      ascii;
    class       surfaceScalarField;
    location    "0.13";
    object      phi.water;
}
// * * * * * * * * * * * * * * * * * * * * * * * * * * * * * * * * * * * * * //

dimensions      [0 3 -1 0 0 0 0];

internalField   nonuniform List<scalar> 
999
(
3.25513e-13
1.86292e-13
-2.41194e-14
4.34213e-13
9.38714e-13
1.71858e-12
5.80825e-13
2.58677e-13
7.90044e-13
1.26856e-12
7.6416e-13
1.91197e-12
4.82648e-13
-4.26326e-13
4.26326e-13
1.84741e-13
8.44022e-13
2.80228e-13
1.42013e-13
-5.34087e-13
-4.12432e-13
-5.88613e-13
-9.81845e-13
-1.70873e-12
-2.73708e-13
-1.39418e-12
-2.34232e-12
-1.9777e-12
-2.63835e-12
-2.15145e-12
-1.1209e-12
-1.58619e-12
-8.61655e-13
-5.2009e-13
-4.26868e-13
-7.18621e-13
-1.12472e-12
-5.02949e-13
7.76412e-13
1.06015e-12
1.70196e-12
1.5628e-12
1.24524e-12
5.61892e-13
3.58181e-13
-5.11418e-13
-4.64092e-13
-1.86307e-12
-1.32179e-12
-8.90599e-13
-2.27189e-12
-6.79034e-13
-1.77022e-13
-1.30779e-12
-1.11388e-12
-9.19904e-13
-1.37672e-12
-1.64572e-12
-3.36342e-12
-4.47049e-12
-4.20042e-12
-4.95609e-12
-4.59904e-12
-4.09384e-12
-4.62622e-12
-4.27612e-12
-3.39556e-12
-4.01076e-12
-4.42653e-12
-3.7e-12
-4.39376e-12
-5.07327e-12
-5.59438e-12
-4.64971e-12
-3.84624e-12
-3.16606e-12
-2.03076e-12
-1.56407e-12
-1.02376e-12
-1.2048e-12
-8.03876e-13
-1.13687e-13
7.53175e-13
1.88144e-12
2.1792e-12
2.26385e-12
2.78209e-12
4.11016e-12
4.68775e-12
3.86835e-12
3.49768e-12
2.34257e-12
2.4555e-12
2.03877e-12
1.22552e-12
9.49941e-13
1.18293e-12
2.51046e-12
1.73718e-12
2.03096e-12
1.03931e-12
2.98477e-13
-8.52653e-14
-3.60233e-13
4.78066e-13
-2.82577e-13
-1.31612e-12
-1.53206e-12
-1.23146e-12
-7.62931e-13
2.93529e-13
1.486e-12
2.58827e-12
3.86561e-12
4.24638e-12
3.80915e-12
4.07095e-12
3.35619e-12
4.02059e-12
4.83681e-12
4.80718e-12
5.75065e-12
5.48883e-12
4.5778e-12
5.61544e-12
4.3324e-12
4.6208e-12
1.99156e-12
1.21649e-12
2.66867e-12
3.10254e-12
2.47148e-12
2.33618e-12
2.67728e-12
2.14462e-12
2.11067e-12
1.82951e-12
5.29546e-13
3.38051e-13
6.82121e-13
5.59156e-13
4.54748e-13
1.66523e-12
2.43076e-12
2.4016e-12
3.4479e-12
2.62122e-12
2.98236e-12
1.90023e-12
7.90539e-13
1.21089e-12
8.52218e-13
1.26147e-12
1.12251e-12
1.72933e-12
1.69307e-12
2.29516e-12
1.72952e-12
4.68678e-13
-1.8474e-13
1.16099e-12
9.25098e-13
1.13687e-13
1.22619e-12
6.97716e-13
5.77472e-13
5.14614e-13
7.29003e-13
1.85458e-12
8.55104e-13
-1.64587e-14
4.62172e-13
5.51471e-13
8.71005e-13
1.19097e-13
-2.17882e-13
4.72661e-14
-7.80122e-13
-7.74448e-13
-3.76375e-13
-6.17288e-13
3.55947e-13
1.19722e-12
2.69045e-13
5.87244e-13
8.69436e-13
1.65851e-12
1.03248e-12
3.7745e-13
-1.42108e-13
-3.12639e-13
-4.38882e-13
2.16796e-13
-2.79798e-14
7.33355e-13
5.79141e-13
1.31494e-12
2.19656e-12
4.67731e-13
5.15518e-13
3.04332e-13
1.71828e-12
1.69953e-12
1.75331e-12
1.56112e-12
1.42105e-14
-3.3305e-13
-2.87335e-13
7.30189e-13
1.27812e-12
-7.10549e-14
-4.34538e-13
1.93771e-12
1.62581e-12
1.60569e-12
2.03747e-12
2.6353e-12
2.92931e-12
1.17753e-12
7.28188e-13
4.89081e-13
1.17862e-12
1.77763e-12
1.19467e-12
1.69119e-12
2.70323e-12
1.4368e-12
6.19021e-13
1.01639e-12
6.9711e-13
2.18532e-12
2.25719e-12
1.71772e-12
2.03434e-12
2.03119e-12
2.75394e-12
2.43652e-12
2.03356e-12
1.18667e-12
3.16963e-13
-1.65392e-13
2.67522e-14
-1.7053e-13
2.84097e-13
-2.09967e-13
-1.37804e-12
-2.03383e-12
-4.08405e-12
-4.09301e-12
-3.71899e-12
-3.77976e-12
-2.58278e-12
-1.54366e-12
-2.2199e-12
-1.0236e-12
1.13687e-13
1.43082e-12
2.41816e-12
1.60743e-12
1.75488e-12
2.37115e-12
3.49568e-12
3.32723e-12
3.08341e-12
2.57501e-12
2.88633e-12
3.10205e-12
3.58802e-12
2.50548e-12
2.58482e-12
1.04113e-12
5.40012e-13
-8.52648e-14
2.70007e-13
5.16129e-13
-4.11063e-13
-1.13101e-19
2.84214e-14
-8.1999e-13
-2.99811e-12
-2.27937e-12
-1.75183e-12
-2.0731e-12
-2.23808e-12
-1.94285e-12
-1.52156e-12
-1.07841e-12
-1.8799e-12
-1.32576e-12
-7.24199e-13
-5.19417e-13
-5.80109e-13
1.69535e-13
8.08197e-13
6.82885e-13
4.81672e-13
7.29952e-13
9.98314e-13
6.01111e-13
1.03019e-13
6.9521e-13
-5.23526e-13
-4.04933e-13
-1.24781e-12
-1.36237e-12
-1.91013e-12
-1.44673e-12
1.42108e-13
1.22497e-12
9.37334e-13
9.33443e-13
2.19847e-12
2.5394e-12
4.04761e-12
4.9503e-12
5.15876e-12
5.87794e-12
4.84113e-12
3.68343e-12
3.98591e-12
3.60406e-12
3.31546e-12
3.82505e-12
3.56481e-12
2.8542e-12
2.36914e-12
1.43573e-12
2.46979e-12
2.2369e-12
1.08734e-12
1.11268e-12
2.39541e-13
5.36266e-13
-5.56449e-13
-7.97102e-13
-8.66863e-13
-1.00196e-13
-2.15903e-13
2.84217e-13
-7.56729e-13
-1.38176e-12
-7.5667e-13
-9.90954e-13
-1.52519e-12
-9.37262e-13
-2.82021e-13
3.72139e-13
6.54717e-13
9.5963e-14
1.43219e-13
3.42338e-13
9.22782e-13
1.53947e-12
5.84918e-13
-9.52511e-13
-9.77144e-13
-1.25639e-12
-1.3962e-12
-1.77592e-12
-2.87563e-12
-2.65679e-12
-2.53684e-12
-2.71778e-12
-1.61537e-12
-1.73607e-12
-2.15278e-12
-5.1159e-13
-4.95627e-13
-3.2692e-13
6.11113e-13
-6.30123e-14
1.33018e-12
1.55935e-12
2.21996e-12
2.50808e-12
2.02287e-12
2.287e-12
7.03367e-13
6.24401e-13
1.94801e-13
-2.26152e-13
-4.26331e-14
6.42055e-13
3.68672e-13
1.10646e-13
-3.20254e-13
-2.11641e-13
-7.36502e-13
-7.44868e-13
-1.50864e-12
-2.37799e-12
-2.68383e-12
-1.94807e-12
-1.33975e-12
-8.67869e-13
-6.2998e-13
-1.04962e-12
-9.02421e-13
-9.58314e-13
-1.58899e-12
-8.14163e-13
-1.51052e-12
-7.89257e-13
-8.97467e-13
-3.45426e-14
5.30957e-13
1.70086e-12
2.46028e-12
1.79287e-12
1.84339e-12
1.83082e-12
1.26362e-12
2.06275e-12
1.6794e-12
1.27171e-12
2.04311e-12
3.24112e-12
3.83611e-12
4.78488e-12
4.70157e-12
4.06432e-12
4.16337e-12
3.78124e-12
4.43592e-12
3.0731e-12
2.93245e-12
4.07054e-12
3.917e-12
4.06571e-12
4.6178e-12
4.01619e-12
4.54439e-12
4.75378e-12
4.73794e-12
3.42155e-12
3.2393e-12
2.53528e-12
1.65628e-12
-1.0115e-13
-4.25332e-13
-4.40747e-13
-2.43491e-13
7.38964e-13
1.91232e-12
1.04732e-12
-1.75375e-13
-2.9887e-13
5.1159e-13
1.77992e-13
1.89749e-12
2.13428e-12
2.7747e-12
2.73975e-12
1.755e-12
3.18392e-12
3.06293e-12
2.60171e-12
1.13374e-12
9.82662e-13
1.0765e-12
6.23357e-13
7.10543e-14
7.17803e-13
6.38683e-13
4.12114e-13
5.68941e-13
1.88242e-12
8.66862e-13
2.13162e-13
-3.96965e-13
-1.1585e-12
-4.03703e-13
1.14668e-13
2.09648e-14
1.32251e-12
8.61639e-13
1.9149e-12
2.05235e-12
2.36025e-12
3.29587e-12
3.05286e-12
2.7355e-12
2.55852e-12
1.58149e-12
1.45012e-12
1.36056e-12
1.34963e-12
1.38357e-12
1.70883e-12
-5.83213e-13
-1.94225e-12
-2.07384e-12
-1.31255e-12
-2.86707e-12
-3.55842e-12
-4.53201e-12
-4.55968e-12
-2.77152e-12
-4.55851e-12
-3.38875e-12
-3.45259e-12
-3.65841e-12
-2.61663e-12
-2.44862e-12
-2.276e-12
-1.76615e-12
-3.66916e-13
1.23441e-12
3.60442e-12
5.24395e-12
6.90384e-12
8.59202e-12
1.16243e-11
1.63935e-11
2.42761e-11
3.9117e-11
5.86107e-11
9.29066e-11
1.41674e-10
2.2235e-10
3.45087e-10
5.39923e-10
8.38914e-10
1.30089e-09
2.0113e-09
3.09899e-09
4.75328e-09
7.26591e-09
1.10709e-08
1.68094e-08
2.54302e-08
3.83379e-08
5.75912e-08
8.62056e-08
1.28571e-07
1.91068e-07
2.82909e-07
4.1737e-07
6.13479e-07
8.98405e-07
1.31078e-06
1.90529e-06
2.75905e-06
3.98029e-06
5.72024e-06
8.18938e-06
1.16792e-05
1.65918e-05
2.34788e-05
3.30946e-05
4.64646e-05
6.49774e-05
9.05037e-05
0.000125552
0.00017347
0.000238703
0.000327124
0.000446454
0.000606793
0.000821284
0.00110694
0.00148566
0.00198551
0.00264221
0.00350103
0.00461897
0.00606745
0.00793536
0.0103327
0.013395
0.0172876
0.0222119
0.0284106
0.0361753
0.0458533
0.0578555
0.0726652
0.0908465
0.113053
0.140036
0.172654
0.211879
0.258803
0.314643
0.380743
0.458577
0.549745
0.655966
0.779075
0.921006
1.08378
1.26948
1.48024
1.71821
1.98554
2.28433
2.61663
2.98439
3.38943
3.83343
4.31787
4.84406
5.41306
6.02572
6.68264
7.38415
8.13035
8.92108
9.75595
10.6343
11.5553
12.5179
13.5209
14.5628
15.6422
16.7574
17.9067
19.0882
20.3001
21.5405
22.8075
24.0992
25.4138
26.7495
28.1044
29.4769
30.8654
32.2682
33.6838
35.111
36.5484
37.9948
39.449
40.91
42.377
43.849
45.3252
46.805
48.2877
49.7727
51.2597
52.7481
54.2376
55.7278
57.2185
58.7095
60.2005
61.6913
63.182
64.6722
66.1621
67.6514
69.1402
70.6284
72.1161
73.6032
75.0896
76.5755
78.0609
79.5458
81.0301
82.5141
83.9976
85.4808
86.9636
88.4462
89.9285
91.4107
92.8927
94.3746
95.8566
97.3385
98.8204
100.303
101.785
103.267
104.75
106.233
107.716
109.2
110.684
112.168
113.653
115.139
116.625
118.112
119.599
121.087
122.576
124.065
125.556
127.047
128.539
130.031
131.525
133.019
134.515
136.011
137.508
139.006
140.505
142.006
143.507
145.009
146.512
148.017
149.522
151.029
152.536
154.045
155.555
157.066
158.579
160.092
161.607
163.122
164.64
166.158
167.678
169.199
170.721
172.245
173.77
175.296
176.824
178.353
179.884
181.416
182.95
184.485
186.022
187.561
189.101
190.643
192.187
193.733
195.28
196.829
198.38
199.933
201.488
203.045
204.604
206.165
207.728
209.293
210.86
212.429
214.001
215.575
217.151
218.73
220.311
221.894
223.48
225.068
226.659
228.252
229.848
231.447
233.048
234.651
236.258
237.867
239.479
241.094
242.712
244.332
245.956
247.582
249.212
250.844
252.48
254.119
255.761
257.406
259.054
260.706
262.361
264.02
265.682
267.347
269.017
270.689
272.366
274.046
275.73
277.418
279.11
280.805
282.505
284.209
285.917
287.629
289.346
291.067
292.792
294.522
296.256
297.995
299.739
301.487
303.24
304.999
306.762
308.53
310.303
312.082
313.866
315.655
317.45
319.251
321.057
322.868
324.686
326.51
328.339
330.175
332.017
333.864
335.72
337.582
339.45
341.324
343.207
345.097
346.993
348.897
350.809
352.727
354.654
356.588
358.531
360.482
362.442
364.41
366.388
368.374
370.37
372.375
374.39
376.414
378.448
380.492
382.546
384.609
386.684
388.769
390.871
392.983
395.106
397.239
399.387
401.548
403.722
405.908
408.109
410.324
412.555
414.799
417.06
419.336
421.629
423.938
426.265
428.61
430.973
433.355
435.757
438.178
440.621
443.085
445.571
448.08
450.614
453.171
455.755
458.365
461.003
463.668
466.363
469.089
471.848
474.639
477.467
480.331
483.234
486.176
489.16
492.187
495.259
498.377
501.543
504.756
508.017
511.326
514.679
518.072
521.498
524.942
527.721
530.445
533.102
535.69
538.223
540.715
543.182
545.643
548.103
550.577
553.059
555.561
558.07
560.582
563.096
565.605
568.109
570.604
573.091
575.567
578.037
580.498
582.955
585.404
587.848
590.284
592.713
595.13
597.537
599.932
602.317
604.69
607.055
609.41
611.755
614.086
616.403
618.701
620.981
623.24
625.482
627.705
629.913
632.107
634.288
636.455
638.607
640.741
642.854
644.94
646.998
649.023
651.014
652.969
654.887
656.772
658.628
660.457
662.257
664.027
665.766
667.476
669.153
670.786
672.368
673.884
675.33
676.695
677.972
679.147
680.206
681.138
681.935
682.591
683.1
683.464
683.675
683.738
683.75
683.748
683.552
682.97
681.921
680.414
678.446
675.991
673.041
669.552
665.513
660.881
655.659
649.817
643.398
636.428
629.043
621.39
613.741
607.126
603.897
)
;

boundaryField
{
    sideLeft
    {
        type            symmetryPlane;
        value           uniform 0;
    }
    sideRight
    {
        type            calculated;
        value           uniform 2776.93;
    }
    topbottom
    {
        type            empty;
        value           nonuniform 0();
    }
    frontback
    {
        type            empty;
        value           nonuniform 0();
    }
}


// ************************************************************************* //
