/*--------------------------------*- C++ -*----------------------------------*\
| =========                 |                                                 |
| \\      /  F ield         | OpenFOAM: The Open Source CFD Toolbox           |
|  \\    /   O peration     | Version:  2.4.0                                 |
|   \\  /    A nd           | Web:      www.OpenFOAM.org                      |
|    \\/     M anipulation  |                                                 |
\*---------------------------------------------------------------------------*/
FoamFile
{
    version     2.0;
    format      ascii;
    class       surfaceScalarField;
    location    "0.13";
    object      phi.air;
}
// * * * * * * * * * * * * * * * * * * * * * * * * * * * * * * * * * * * * * //

dimensions      [0 3 -1 0 0 0 0];

internalField   nonuniform List<scalar> 
999
(
2.11826e-13
-4.10814e-14
3.2724e-14
6.04743e-13
1.0524e-12
1.66174e-12
3.53451e-13
3.15521e-13
1.01742e-12
1.38225e-12
9.91534e-13
1.57091e-12
2.55274e-13
-3.12639e-13
4.83169e-13
2.41585e-13
6.73492e-13
2.23385e-13
5.9676e-13
-4.77244e-13
-5.26119e-13
-7.023e-13
-9.25002e-13
-1.70873e-12
-5.01081e-13
-1.39418e-12
-2.11494e-12
-1.80716e-12
-2.41098e-12
-2.2083e-12
-1.1209e-12
-1.69988e-12
-8.61655e-13
-5.76933e-13
-5.40555e-13
-6.04934e-13
-8.97343e-13
-7.87166e-13
6.62725e-13
6.05399e-13
2.15671e-12
1.5628e-12
1.01786e-12
8.46109e-13
4.71868e-13
-7.38792e-13
-5.20935e-13
-1.69254e-12
-1.26494e-12
-1.11797e-12
-1.93083e-12
-9.63251e-13
-6.49188e-15
-1.13726e-12
-9.43345e-13
-1.09043e-12
-1.54725e-12
-1.87309e-12
-3.19289e-12
-4.52733e-12
-4.25726e-12
-5.12662e-12
-4.48535e-12
-4.37806e-12
-4.17147e-12
-4.38981e-12
-3.62294e-12
-3.95392e-12
-4.42653e-12
-3.98422e-12
-3.71164e-12
-5.41433e-12
-5.08279e-12
-4.99077e-12
-3.67571e-12
-3.10922e-12
-2.54235e-12
-1.27986e-12
-6.2586e-13
-1.88693e-12
-2.92285e-13
-4.54747e-13
2.98427e-13
2.33619e-12
2.1792e-12
2.54806e-12
2.78209e-12
3.88278e-12
4.85828e-12
4.03888e-12
3.55453e-12
2.22888e-12
2.39865e-12
2.03877e-12
1.16867e-12
8.93097e-13
1.46715e-12
2.39678e-12
1.56665e-12
2.14465e-12
1.43721e-12
-1.5627e-13
-3.12639e-13
3.76709e-14
3.07536e-13
-6.23637e-13
-1.20243e-12
-1.53206e-12
-1.06093e-12
-1.10399e-12
6.34589e-13
1.65653e-12
2.24721e-12
4.03614e-12
3.84847e-12
4.15022e-12
3.72989e-12
3.41303e-12
3.96375e-12
5.00734e-12
4.63665e-12
5.80749e-12
5.54567e-12
4.91886e-12
5.44491e-12
4.16187e-12
4.73449e-12
2.44631e-12
1.10281e-12
2.10023e-12
3.10254e-12
2.58517e-12
2.1088e-12
3.07519e-12
2.65621e-12
1.59908e-12
2.22741e-12
1.31642e-13
4.51738e-13
5.11591e-13
7.29686e-13
6.82121e-13
1.38101e-12
2.43076e-12
2.4016e-12
3.33422e-12
2.62122e-12
2.86867e-12
2.01392e-12
1.18844e-12
1.04036e-12
5.68001e-13
1.0341e-12
1.74778e-12
1.67249e-12
1.40886e-12
2.46569e-12
1.55899e-12
5.82365e-13
2.13164e-13
6.49395e-13
8.68255e-13
2.84217e-13
8.85129e-13
5.27185e-13
6.34315e-13
7.41988e-13
6.15317e-13
2.25248e-12
6.84574e-13
-1.64587e-14
2.91641e-13
4.37784e-13
8.71005e-13
2.89627e-13
-2.17882e-13
3.31483e-13
-1.0075e-12
-7.17605e-13
-4.90062e-13
-5.60444e-13
6.40164e-13
9.13006e-13
9.85148e-14
5.87244e-13
1.26734e-12
1.09007e-12
1.08932e-12
7.75354e-13
-3.12639e-13
-1.42109e-13
-4.38882e-13
1.59953e-13
-2.79798e-14
3.92294e-13
7.49672e-13
1.37178e-12
2.31025e-12
2.97201e-13
5.72361e-13
3.04332e-13
1.66143e-12
1.69953e-12
1.63963e-12
1.7885e-12
2.98428e-13
-5.60423e-13
-5.99616e-14
6.73345e-13
8.80221e-13
-1.27898e-13
-9.34775e-14
1.71034e-12
1.34159e-12
1.71938e-12
2.37853e-12
2.46477e-12
2.98615e-12
1.12069e-12
7.28188e-13
4.32237e-13
1.17862e-12
1.43657e-12
1.81994e-12
2.03225e-12
2.64638e-12
9.25209e-13
7.32708e-13
7.32176e-13
9.81327e-13
2.18532e-12
2.08666e-12
1.83141e-12
2.20487e-12
2.03119e-12
2.58341e-12
2.37967e-12
2.20409e-12
1.18667e-12
-2.40978e-14
-5.17055e-14
-3.14308e-13
3.41061e-13
5.67237e-14
-1.53124e-13
-1.20751e-12
-1.8633e-12
-4.02721e-12
-4.37723e-12
-4.11689e-12
-3.32501e-12
-2.63962e-12
-1.6005e-12
-2.16306e-12
-5.68854e-13
-2.84217e-13
1.37398e-12
2.41816e-12
1.60743e-12
1.69804e-12
2.71221e-12
3.32515e-12
3.21354e-12
3.08341e-12
2.68869e-12
2.65895e-12
3.38626e-12
3.36065e-12
2.56232e-12
2.3006e-12
1.38219e-12
6.53699e-13
2.8422e-14
4.26329e-14
5.72973e-13
-2.97376e-13
-1.14931e-19
-1.98952e-13
-8.1999e-13
-2.94127e-12
-2.33621e-12
-1.80867e-12
-1.84573e-12
-2.40861e-12
-1.886e-12
-1.46472e-12
-1.07841e-12
-1.59569e-12
-1.43944e-12
-7.24199e-13
-2.352e-13
-3.52735e-13
-4.55742e-13
8.6504e-13
5.69199e-13
8.22733e-13
4.45735e-13
8.27783e-13
7.14798e-13
5.00923e-13
8.08897e-13
-6.94056e-13
-5.1862e-13
-1.30466e-12
-1.47606e-12
-2.42172e-12
-5.37237e-13
8.52647e-14
7.70221e-13
1.27839e-12
7.0607e-13
2.14163e-12
2.36887e-12
3.93393e-12
5.46189e-12
5.21561e-12
5.8211e-12
4.78429e-12
3.5129e-12
4.15644e-12
3.6609e-12
3.48599e-12
3.65452e-12
3.33743e-12
2.74051e-12
2.48283e-12
1.60626e-12
2.35611e-12
2.06637e-12
1.14419e-12
6.01093e-13
6.94288e-13
5.9311e-13
-1.01701e-13
-1.47922e-12
-6.96333e-13
-1.5704e-13
-4.53732e-14
7.07167e-20
-6.99886e-13
-1.15439e-12
-9.84044e-13
-1.38886e-12
-9.56751e-13
-8.80419e-13
-2.25178e-13
-1.96295e-13
8.25247e-13
4.93867e-13
1.43219e-13
3.42338e-13
1.09331e-12
1.53947e-12
2.43857e-13
-8.95667e-13
-8.63457e-13
-1.25639e-12
-1.33936e-12
-1.71908e-12
-2.81879e-12
-2.37257e-12
-2.82105e-12
-3.00199e-12
-1.44484e-12
-1.5087e-12
-2.15278e-12
-3.97904e-13
-6.66158e-13
-3.83763e-13
4.40582e-13
3.91735e-13
8.18584e-13
1.78672e-12
1.76521e-12
2.79229e-12
2.02287e-12
2.05962e-12
7.60211e-13
6.81244e-13
4.79018e-13
1.22133e-15
-1.5632e-13
3.57837e-13
3.68672e-13
3.3802e-13
-2.06567e-13
-2.68484e-13
-9.63876e-13
-6.88024e-13
-1.73602e-12
-2.2643e-12
-2.62698e-12
-1.94807e-12
-8.85004e-13
-1.09524e-12
-8.0051e-13
-7.654e-13
-1.07295e-12
-1.12884e-12
-1.41846e-12
-9.84693e-13
-1.51052e-12
-6.75571e-13
-8.40623e-13
7.91443e-14
6.44643e-13
1.24611e-12
2.7445e-12
1.84972e-12
1.78655e-12
1.88767e-12
1.26362e-12
2.40381e-12
1.73624e-12
9.30647e-13
2.27049e-12
3.24112e-12
4.00664e-12
5.0691e-12
4.4742e-12
3.83695e-12
4.39074e-12
4.06546e-12
4.37907e-12
2.6752e-12
3.10298e-12
3.38842e-12
4.3149e-12
4.1794e-12
4.33358e-12
4.24356e-12
4.54439e-12
4.41272e-12
5.02215e-12
3.42155e-12
3.12561e-12
2.42159e-12
1.59943e-12
1.25367e-14
-5.39019e-13
-2.70217e-13
-3.00334e-13
9.66338e-13
2.026e-12
7.63108e-13
-2.89062e-13
-1.46525e-14
3.97904e-13
5.75896e-13
1.67012e-12
2.30481e-12
2.60417e-12
2.51238e-12
1.86869e-12
3.18392e-12
3.23346e-12
2.65856e-12
1.02006e-12
4.71071e-13
1.58809e-12
5.66513e-13
1.27898e-13
4.33586e-13
9.229e-13
7.1054e-14
6.82628e-13
2.10979e-12
4.12115e-13
4.2632e-14
2.28313e-13
-1.1585e-12
-5.74234e-13
-3.96923e-13
4.18869e-13
8.67763e-13
1.43007e-12
1.85805e-12
2.10919e-12
2.36025e-12
3.35271e-12
3.33708e-12
2.16706e-12
2.7859e-12
1.41096e-12
1.45012e-12
1.53109e-12
1.46331e-12
1.72463e-12
1.36777e-12
-5.2637e-13
-2.22647e-12
-1.84646e-12
-1.25571e-12
-2.92391e-12
-3.33104e-12
-5.38466e-12
-3.93441e-12
-3.45364e-12
-4.16061e-12
-3.21822e-12
-3.62312e-12
-3.37419e-12
-2.61663e-12
-2.61915e-12
-2.44653e-12
-1.48193e-12
-1.96385e-13
1.12072e-12
3.37704e-12
4.90289e-12
6.79015e-12
8.98993e-12
1.15675e-11
1.63366e-11
2.48445e-11
3.87191e-11
5.94634e-11
9.29635e-11
1.42015e-10
2.22862e-10
3.46963e-10
5.41458e-10
8.42041e-10
1.30509e-09
2.01795e-09
3.1086e-09
4.76817e-09
7.28876e-09
1.11044e-08
1.68591e-08
2.55044e-08
3.84483e-08
5.77537e-08
8.64436e-08
1.28921e-07
1.91577e-07
2.83649e-07
4.18439e-07
6.1502e-07
9.00615e-07
1.31394e-06
1.90979e-06
2.76542e-06
3.98928e-06
5.73288e-06
8.20707e-06
1.17039e-05
1.6626e-05
2.35261e-05
3.31596e-05
4.65537e-05
6.50989e-05
9.06687e-05
0.000125775
0.00017377
0.000239105
0.000327659
0.000447165
0.000607732
0.000822518
0.00110855
0.00148776
0.00198823
0.00264571
0.00350552
0.00462471
0.00607473
0.00794455
0.0103443
0.0134094
0.0173056
0.022234
0.0284379
0.0362086
0.0458937
0.0579043
0.0727238
0.0909165
0.113136
0.140134
0.172769
0.212013
0.258958
0.314821
0.380947
0.458809
0.550006
0.656259
0.779401
0.921366
1.08417
1.26991
1.48071
1.71871
1.98607
2.2849
2.61723
2.98502
3.39008
3.8341
4.31856
4.84475
5.41376
6.02643
6.68334
7.38484
8.13103
8.92174
9.75658
10.6349
11.5559
12.5185
13.5214
14.5633
15.6427
16.7578
17.907
19.0885
20.3003
21.5407
22.8077
24.0994
25.4139
26.7496
28.1045
29.4769
30.8653
32.2681
33.6838
35.1109
36.5483
37.9946
39.4489
40.9099
42.3768
43.8488
45.325
46.8048
48.2875
49.7725
51.2595
52.7479
54.2374
55.7276
57.2183
58.7093
60.2003
61.6911
63.1818
64.672
66.1619
67.6512
69.14
70.6282
72.1159
73.6029
75.0894
76.5753
78.0607
79.5456
81.03
82.5139
83.9974
85.4806
86.9634
88.446
89.9283
91.4105
92.8925
94.3745
95.8564
97.3383
98.8203
100.302
101.785
103.267
104.75
106.233
107.716
109.2
110.684
112.168
113.653
115.139
116.625
118.112
119.599
121.087
122.576
124.065
125.556
127.047
128.538
130.031
131.525
133.019
134.514
136.011
137.508
139.006
140.505
142.005
143.507
145.009
146.512
148.017
149.522
151.029
152.536
154.045
155.555
157.066
158.578
160.092
161.607
163.122
164.64
166.158
167.678
169.199
170.721
172.244
173.769
175.296
176.824
178.353
179.884
181.416
182.95
184.485
186.022
187.561
189.101
190.643
192.187
193.732
195.28
196.829
198.38
199.933
201.488
203.045
204.604
206.164
207.727
209.293
210.86
212.429
214.001
215.575
217.151
218.73
220.311
221.894
223.48
225.068
226.659
228.252
229.848
231.447
233.048
234.651
236.258
237.867
239.479
241.094
242.712
244.332
245.956
247.582
249.212
250.844
252.48
254.118
255.76
257.406
259.054
260.706
262.361
264.02
265.682
267.347
269.016
270.689
272.366
274.046
275.73
277.418
279.11
280.805
282.505
284.209
285.917
287.629
289.346
291.067
292.792
294.522
296.256
297.995
299.739
301.487
303.24
304.999
306.762
308.53
310.303
312.082
313.866
315.655
317.45
319.251
321.057
322.868
324.686
326.509
328.339
330.175
332.017
333.864
335.72
337.582
339.45
341.324
343.207
345.097
346.993
348.897
350.808
352.727
354.654
356.588
358.531
360.482
362.442
364.411
366.388
368.374
370.37
372.375
374.39
376.414
378.448
380.492
382.546
384.609
386.683
388.769
390.871
392.983
395.105
397.239
399.387
401.548
403.722
405.908
408.109
410.324
412.555
414.799
417.06
419.336
421.629
423.938
426.265
428.61
430.973
433.355
435.756
438.178
440.621
443.085
445.571
448.08
450.614
453.171
455.755
458.365
461.002
463.668
466.363
469.089
471.848
474.639
477.467
480.331
483.234
486.175
489.16
492.186
495.259
498.377
501.543
504.755
508.018
511.325
514.679
518.072
521.498
524.942
527.721
530.445
533.102
535.689
538.223
540.715
543.182
545.643
548.103
550.577
553.059
555.561
558.07
560.582
563.096
565.605
568.109
570.604
573.091
575.567
578.037
580.498
582.955
585.404
587.848
590.284
592.713
595.13
597.538
599.932
602.317
604.69
607.056
609.41
611.755
614.086
616.403
618.701
620.981
623.24
625.482
627.705
629.913
632.107
634.288
636.455
638.607
640.741
642.854
644.94
646.998
649.023
651.014
652.969
654.887
656.772
658.628
660.457
662.257
664.027
665.766
667.476
669.153
670.787
672.368
673.884
675.33
676.695
677.972
679.147
680.206
681.138
681.935
682.591
683.101
683.463
683.677
683.747
683.764
683.764
683.565
682.979
681.921
680.416
678.444
675.991
673.042
669.552
665.514
660.881
655.659
649.817
643.398
636.428
629.043
621.39
613.741
607.127
603.895
)
;

boundaryField
{
    sideLeft
    {
        type            symmetryPlane;
        value           uniform 0;
    }
    sideRight
    {
        type            calculated;
        value           uniform 605.542;
    }
    topbottom
    {
        type            empty;
        value           nonuniform 0();
    }
    frontback
    {
        type            empty;
        value           nonuniform 0();
    }
}


// ************************************************************************* //
