/*--------------------------------*- C++ -*----------------------------------*\
| =========                 |                                                 |
| \\      /  F ield         | OpenFOAM: The Open Source CFD Toolbox           |
|  \\    /   O peration     | Version:  2.4.0                                 |
|   \\  /    A nd           | Web:      www.OpenFOAM.org                      |
|    \\/     M anipulation  |                                                 |
\*---------------------------------------------------------------------------*/
FoamFile
{
    version     2.0;
    format      ascii;
    class       volScalarField;
    location    "0.13";
    object      pMean;
}
// * * * * * * * * * * * * * * * * * * * * * * * * * * * * * * * * * * * * * //

dimensions      [1 -1 -2 0 0 0 0];

internalField   nonuniform List<scalar> 
1000
(
5e+06
5e+06
5e+06
5e+06
5e+06
5e+06
5e+06
5e+06
5e+06
5e+06
5e+06
5e+06
5e+06
5e+06
5e+06
5e+06
5e+06
5e+06
5e+06
5e+06
5e+06
5e+06
5e+06
5e+06
5e+06
5e+06
5e+06
5e+06
5e+06
5e+06
5e+06
5e+06
5e+06
5e+06
5e+06
5e+06
5e+06
5e+06
5e+06
5e+06
5e+06
5e+06
5e+06
5e+06
5e+06
5e+06
5e+06
5e+06
5e+06
5e+06
5e+06
5e+06
5e+06
5e+06
5e+06
5e+06
5e+06
5e+06
5e+06
5e+06
5e+06
5e+06
5e+06
5e+06
5e+06
5e+06
5e+06
5e+06
5e+06
5e+06
5e+06
5e+06
5e+06
5e+06
5e+06
5e+06
5e+06
5e+06
5e+06
5e+06
5e+06
5e+06
5e+06
5e+06
5e+06
5e+06
5e+06
5e+06
5e+06
5e+06
5e+06
5e+06
5e+06
5e+06
5e+06
5e+06
5e+06
5e+06
5e+06
5e+06
5e+06
5e+06
5e+06
5e+06
5e+06
5e+06
5e+06
5e+06
5e+06
5e+06
5e+06
5e+06
5e+06
5e+06
5e+06
5e+06
5e+06
5e+06
5e+06
5e+06
5e+06
5e+06
5e+06
5e+06
5e+06
5e+06
5e+06
5e+06
5e+06
5e+06
5e+06
5e+06
5e+06
5e+06
5e+06
5e+06
5e+06
5e+06
5e+06
5e+06
5e+06
5e+06
5e+06
5e+06
5e+06
5e+06
5e+06
5e+06
5e+06
5e+06
5e+06
5e+06
5e+06
5e+06
5e+06
5e+06
5e+06
5e+06
5e+06
5e+06
5e+06
5e+06
5e+06
5e+06
5e+06
5e+06
5e+06
5e+06
5e+06
5e+06
5e+06
5e+06
5e+06
5e+06
5e+06
5e+06
5e+06
5e+06
5e+06
5e+06
5e+06
5e+06
5e+06
5e+06
5e+06
5e+06
5e+06
5e+06
5e+06
5e+06
5e+06
5e+06
5e+06
5e+06
5e+06
5e+06
5e+06
5e+06
5e+06
5e+06
5e+06
5e+06
5e+06
5e+06
5e+06
5e+06
5e+06
5e+06
5e+06
5e+06
5e+06
5e+06
5e+06
5e+06
5e+06
5e+06
5e+06
5e+06
5e+06
5e+06
5e+06
5e+06
5e+06
5e+06
5e+06
5e+06
5e+06
5e+06
5e+06
5e+06
5e+06
5e+06
5e+06
5e+06
5e+06
5e+06
5e+06
5e+06
5e+06
5e+06
5e+06
5e+06
5e+06
5e+06
5e+06
5e+06
5e+06
5e+06
5e+06
5e+06
5e+06
5e+06
5e+06
5e+06
5e+06
5e+06
5e+06
5e+06
5e+06
5e+06
5e+06
5e+06
5e+06
5e+06
5e+06
5e+06
5e+06
5e+06
5e+06
5e+06
5e+06
5e+06
5e+06
5e+06
5e+06
5e+06
5e+06
5e+06
5e+06
5e+06
5e+06
5e+06
5e+06
5e+06
5e+06
5e+06
5e+06
5e+06
5e+06
5e+06
5e+06
5e+06
5e+06
5e+06
5e+06
5e+06
5e+06
5e+06
5e+06
5e+06
5e+06
5e+06
5e+06
5e+06
5e+06
5e+06
5e+06
5e+06
5e+06
5e+06
5e+06
5e+06
5e+06
5e+06
5e+06
5e+06
5e+06
5e+06
5e+06
5e+06
5e+06
5e+06
5e+06
5e+06
5e+06
5e+06
5e+06
5e+06
5e+06
5e+06
5e+06
5e+06
5e+06
5e+06
5e+06
5e+06
5e+06
5e+06
5e+06
5e+06
5e+06
5e+06
5e+06
5e+06
5e+06
5e+06
5e+06
5e+06
5e+06
5e+06
5e+06
5e+06
5e+06
5e+06
5e+06
5e+06
5e+06
5e+06
5e+06
5e+06
5e+06
5e+06
5e+06
5e+06
5e+06
5e+06
5e+06
5e+06
5e+06
5e+06
5e+06
5e+06
5e+06
5e+06
5e+06
5e+06
5e+06
5e+06
5e+06
5e+06
5e+06
5e+06
5e+06
5e+06
5e+06
5e+06
5e+06
5e+06
5e+06
5e+06
5e+06
5e+06
5e+06
5e+06
5e+06
5e+06
5e+06
5e+06
5e+06
5e+06
5e+06
5e+06
5e+06
5e+06
5e+06
5e+06
5e+06
5e+06
5e+06
5e+06
5e+06
5e+06
5e+06
5e+06
5e+06
5e+06
5e+06
5e+06
5e+06
5e+06
5e+06
5e+06
5e+06
5e+06
5e+06
5e+06
5e+06
5e+06
5e+06
5e+06
5e+06
5e+06
5e+06
5e+06
5e+06
5e+06
5e+06
5e+06
5e+06
5e+06
5e+06
5e+06
5e+06
5e+06
5e+06
5e+06
5e+06
5e+06
5e+06
5e+06
5e+06
5e+06
5e+06
5e+06
5e+06
5e+06
5e+06
5e+06
5e+06
5e+06
5e+06
5e+06
5e+06
5e+06
5e+06
5e+06
5e+06
5e+06
5e+06
5e+06
5e+06
5e+06
5e+06
5e+06
5e+06
5e+06
5e+06
5e+06
5e+06
5e+06
5e+06
5e+06
5e+06
5e+06
5e+06
5e+06
5e+06
5e+06
5e+06
5e+06
5e+06
5e+06
5e+06
5e+06
5e+06
5e+06
5e+06
5e+06
5e+06
5e+06
5e+06
5e+06
5e+06
5e+06
5e+06
5e+06
5e+06
5e+06
5e+06
5e+06
5e+06
5e+06
5e+06
5e+06
5e+06
5e+06
5e+06
5e+06
5e+06
5e+06
5e+06
5e+06
5e+06
5e+06
5e+06
5e+06
5e+06
5e+06
5e+06
5e+06
5e+06
5e+06
5e+06
5e+06
5e+06
5e+06
5e+06
5e+06
5e+06
5e+06
5e+06
5e+06
5e+06
5e+06
5e+06
5e+06
5e+06
5e+06
5e+06
5e+06
5e+06
5e+06
5e+06
5e+06
5e+06
5e+06
5e+06
5e+06
5e+06
5e+06
5e+06
5e+06
5e+06
5e+06
5e+06
5e+06
5e+06
5e+06
5e+06
5e+06
5e+06
5e+06
5e+06
5e+06
5e+06
5e+06
5e+06
5e+06
4.99999e+06
4.99999e+06
4.99999e+06
4.99999e+06
4.99998e+06
4.99998e+06
4.99998e+06
4.99997e+06
4.99996e+06
4.99996e+06
4.99995e+06
4.99994e+06
4.99992e+06
4.99991e+06
4.99989e+06
4.99987e+06
4.99985e+06
4.99982e+06
4.99978e+06
4.99975e+06
4.99971e+06
4.99966e+06
4.9996e+06
4.99954e+06
4.99947e+06
4.9994e+06
4.99931e+06
4.99922e+06
4.99911e+06
4.999e+06
4.99887e+06
4.99873e+06
4.99858e+06
4.99842e+06
4.99824e+06
4.99805e+06
4.99784e+06
4.99762e+06
4.99738e+06
4.99713e+06
4.99686e+06
4.99657e+06
4.99627e+06
4.99594e+06
4.9956e+06
4.99524e+06
4.99486e+06
4.99447e+06
4.99405e+06
4.99361e+06
4.99315e+06
4.99268e+06
4.99218e+06
4.99166e+06
4.99112e+06
4.99056e+06
4.98998e+06
4.98938e+06
4.98876e+06
4.98812e+06
4.98745e+06
4.98677e+06
4.98606e+06
4.98534e+06
4.98459e+06
4.98382e+06
4.98303e+06
4.98222e+06
4.98139e+06
4.98053e+06
4.97966e+06
4.97876e+06
4.97785e+06
4.97691e+06
4.97595e+06
4.97497e+06
4.97397e+06
4.97294e+06
4.9719e+06
4.97083e+06
4.96975e+06
4.96864e+06
4.96751e+06
4.96636e+06
4.96519e+06
4.964e+06
4.96279e+06
4.96155e+06
4.9603e+06
4.95902e+06
4.95772e+06
4.9564e+06
4.95506e+06
4.9537e+06
4.95232e+06
4.95092e+06
4.94949e+06
4.94805e+06
4.94658e+06
4.94509e+06
4.94358e+06
4.94205e+06
4.9405e+06
4.93893e+06
4.93734e+06
4.93572e+06
4.93408e+06
4.93243e+06
4.93075e+06
4.92905e+06
4.92733e+06
4.92558e+06
4.92382e+06
4.92203e+06
4.92023e+06
4.9184e+06
4.91655e+06
4.91468e+06
4.91279e+06
4.91087e+06
4.90894e+06
4.90698e+06
4.905e+06
4.903e+06
4.90098e+06
4.89894e+06
4.89687e+06
4.89479e+06
4.89268e+06
4.89055e+06
4.8884e+06
4.88622e+06
4.88403e+06
4.88181e+06
4.87957e+06
4.87731e+06
4.87503e+06
4.87273e+06
4.8704e+06
4.86805e+06
4.86568e+06
4.86329e+06
4.86088e+06
4.85844e+06
4.85598e+06
4.8535e+06
4.851e+06
4.84848e+06
4.84593e+06
4.84336e+06
4.84077e+06
4.83815e+06
4.83552e+06
4.83286e+06
4.83018e+06
4.82748e+06
4.82475e+06
4.822e+06
4.81923e+06
4.81644e+06
4.81362e+06
4.81078e+06
4.80792e+06
4.80504e+06
4.80213e+06
4.7992e+06
4.79625e+06
4.79327e+06
4.79028e+06
4.78725e+06
4.78421e+06
4.78114e+06
4.77805e+06
4.77494e+06
4.7718e+06
4.76864e+06
4.76545e+06
4.76225e+06
4.75902e+06
4.75576e+06
4.75248e+06
4.74918e+06
4.74586e+06
4.74251e+06
4.73913e+06
4.73574e+06
4.73232e+06
4.72887e+06
4.7254e+06
4.72191e+06
4.71839e+06
4.71485e+06
4.71129e+06
4.7077e+06
4.70408e+06
4.70044e+06
4.69678e+06
4.69309e+06
4.68938e+06
4.68564e+06
4.68188e+06
4.67809e+06
4.67428e+06
4.67044e+06
4.66658e+06
4.66269e+06
4.65878e+06
4.65484e+06
4.65088e+06
4.64689e+06
4.64288e+06
4.63884e+06
4.63477e+06
4.63068e+06
4.62656e+06
4.62241e+06
4.61824e+06
4.61405e+06
4.60982e+06
4.60558e+06
4.6013e+06
4.597e+06
4.59267e+06
4.58831e+06
4.58393e+06
4.57952e+06
4.57508e+06
4.57062e+06
4.56612e+06
4.5616e+06
4.55706e+06
4.55248e+06
4.54788e+06
4.54325e+06
4.53859e+06
4.5339e+06
4.52919e+06
4.52444e+06
4.51967e+06
4.51487e+06
4.51004e+06
4.50518e+06
4.50029e+06
4.49537e+06
4.49043e+06
4.48545e+06
4.48044e+06
4.47541e+06
4.47034e+06
4.46524e+06
4.46012e+06
4.45496e+06
4.44977e+06
4.44455e+06
4.4393e+06
4.43402e+06
4.4287e+06
4.42336e+06
4.41798e+06
4.41257e+06
4.40713e+06
4.40165e+06
4.39615e+06
4.39061e+06
4.38503e+06
4.37942e+06
4.37378e+06
4.36811e+06
4.3624e+06
4.35666e+06
4.35088e+06
4.34507e+06
4.33922e+06
4.33334e+06
4.32742e+06
4.32146e+06
4.31547e+06
4.30944e+06
4.30338e+06
4.29727e+06
4.29113e+06
4.28495e+06
4.27874e+06
4.27248e+06
4.26618e+06
4.25985e+06
4.25347e+06
4.24706e+06
4.2406e+06
4.23411e+06
4.22757e+06
4.22099e+06
4.21436e+06
4.20769e+06
4.20098e+06
4.19423e+06
4.18743e+06
4.18058e+06
4.17369e+06
4.16675e+06
4.15976e+06
4.15273e+06
4.14565e+06
4.13851e+06
4.13133e+06
4.1241e+06
4.11681e+06
4.10947e+06
4.10208e+06
4.09463e+06
4.08713e+06
4.07957e+06
4.07195e+06
4.06428e+06
4.05655e+06
4.04876e+06
4.04091e+06
4.033e+06
4.02504e+06
4.01703e+06
4.00897e+06
4.00089e+06
3.99278e+06
3.98467e+06
3.97661e+06
3.96857e+06
3.96055e+06
3.95252e+06
3.94447e+06
3.93637e+06
3.92823e+06
3.92004e+06
3.91179e+06
3.9035e+06
3.89516e+06
3.88678e+06
3.87836e+06
3.8699e+06
3.8614e+06
3.85287e+06
3.84431e+06
3.8357e+06
3.82706e+06
3.81838e+06
3.80967e+06
3.80091e+06
3.79212e+06
3.78329e+06
3.77443e+06
3.76552e+06
3.75659e+06
3.74761e+06
3.73861e+06
3.72956e+06
3.72049e+06
3.71138e+06
3.70223e+06
3.69305e+06
3.68384e+06
3.6746e+06
3.66532e+06
3.65601e+06
3.64667e+06
3.6373e+06
3.6279e+06
3.61847e+06
3.60901e+06
3.59953e+06
3.59001e+06
3.58047e+06
3.5709e+06
3.5613e+06
3.55168e+06
3.54203e+06
3.53236e+06
3.52267e+06
3.51295e+06
3.50322e+06
3.49347e+06
3.4837e+06
3.47391e+06
3.46411e+06
3.45429e+06
3.44446e+06
3.43462e+06
3.42478e+06
3.41492e+06
3.40506e+06
3.39519e+06
3.38532e+06
3.37546e+06
3.36561e+06
3.35577e+06
3.34595e+06
3.33615e+06
3.32638e+06
3.31665e+06
3.30696e+06
3.29732e+06
3.28773e+06
3.2782e+06
3.26872e+06
3.25928e+06
3.24992e+06
3.24068e+06
3.23159e+06
3.22265e+06
3.21388e+06
3.2053e+06
3.19692e+06
3.18875e+06
3.1808e+06
3.17308e+06
3.16559e+06
3.15833e+06
3.15128e+06
3.14442e+06
3.13771e+06
3.13106e+06
3.12437e+06
3.11736e+06
3.10912e+06
)
;

boundaryField
{
    sideLeft
    {
        type            symmetryPlane;
    }
    sideRight
    {
        type            calculated;
        value           uniform 3.10276e+06;
    }
    topbottom
    {
        type            empty;
    }
    frontback
    {
        type            empty;
    }
}


// ************************************************************************* //
