/*--------------------------------*- C++ -*----------------------------------*\
| =========                 |                                                 |
| \\      /  F ield         | OpenFOAM: The Open Source CFD Toolbox           |
|  \\    /   O peration     | Version:  2.4.0                                 |
|   \\  /    A nd           | Web:      www.OpenFOAM.org                      |
|    \\/     M anipulation  |                                                 |
\*---------------------------------------------------------------------------*/
FoamFile
{
    version     2.0;
    format      ascii;
    class       volScalarField;
    location    "0.13";
    object      T.air;
}
// * * * * * * * * * * * * * * * * * * * * * * * * * * * * * * * * * * * * * //

dimensions      [0 0 0 1 0 0 0];

internalField   nonuniform List<scalar> 
1000
(
300
300
300
300
300
300
300
300
300
300
300
300
300
300
300
300
300
300
300
300
300
300
300
300
300
300
300
300
300
300
300
300
300
300
300
300
300
300
300
300
300
300
300
300
300
300
300
300
300
300
300
300
300
300
300
300
300
300
300
300
300
300
300
300
300
300
300
300
300
300
300
300
300
300
300
300
300
300
300
300
300
300
300
300
300
300
300
300
300
300
300
300
300
300
300
300
300
300
300
300
300
300
300
300
300
300
300
300
300
300
300
300
300
300
300
300
300
300
300
300
300
300
300
300
300
300
300
300
300
300
300
300
300
300
300
300
300
300
300
300
300
300
300
300
300
300
300
300
300
300
300
300
300
300
300
300
300
300
300
300
300
300
300
300
300
300
300
300
300
300
300
300
300
300
300
300
300
300
300
300
300
300
300
300
300
300
300
300
300
300
300
300
300
300
300
300
300
300
300
300
300
300
300
300
300
300
300
300
300
300
300
300
300
300
300
300
300
300
300
300
300
300
300
300
300
300
300
300
300
300
300
300
300
300
300
300
300
300
300
300
300
300
300
300
300
300
300
300
300
300
300
300
300
300
300
300
300
300
300
300
300
300
300
300
300
300
300
300
300
300
300
300
300
300
300
300
300
300
300
300
300
300
300
300
300
300
300
300
300
300
300
300
300
300
300
300
300
300
300
300
300
300
300
300
300
300
300
300
300
300
300
300
300
300
300
300
300
300
300
300
300
300
300
300
300
300
300
300
300
300
300
300
300
300
300
300
300
300
300
300
300
300
300
300
300
300
300
300
300
300
300
300
300
300
300
300
300
300
300
300
300
300
300
300
300
300
300
300
300
300
300
300
300
300
300
300
300
300
300
300
300
300
300
300
300
300
300
300
300
300
300
300
300
300
300
300
300
300
300
300
300
300
300
300
300
300
300
300
300
300
300
300
300
300
300
300
300
300
300
300
300
300
300
300
300
300
300
300
300
300
300
300
300
300
300
300
300
300
300
300
300
300
300
300
300
300
300
300
300
300
300
300
300
300
300
300
300
300
300
300
300
300
300
300
300
300
300
300
300
300
300
300
300
300
300
300
300
300
300
300
300
300
300
300
300
300
300
300
300
300
300
300
300
300
300
300
300
300
300
300
300
300
300
300
300
300
300
300
300
300
300
300
300
300
300
300
300
300
300
300
300
300
300
300
300
300
300
300
300
300
300
300
300
300
300
300
300
300
300
300
300
300
300
300
300
300
300
300
300
300
300
300
300
300
300
300
300
300
300
300
300
300
300
300
300
300
300
300
300
300
299.999
299.999
299.999
299.999
299.999
299.998
299.998
299.997
299.997
299.996
299.995
299.993
299.992
299.99
299.988
299.986
299.983
299.979
299.975
299.971
299.966
299.96
299.953
299.945
299.937
299.927
299.916
299.904
299.891
299.876
299.86
299.843
299.824
299.803
299.781
299.758
299.733
299.706
299.678
299.648
299.616
299.583
299.549
299.513
299.475
299.437
299.397
299.355
299.313
299.269
299.224
299.178
299.131
299.083
299.035
298.985
298.935
298.884
298.833
298.78
298.728
298.675
298.621
298.567
298.513
298.458
298.403
298.347
298.292
298.236
298.179
298.123
298.066
298.01
297.953
297.896
297.839
297.781
297.724
297.666
297.608
297.551
297.493
297.435
297.376
297.318
297.26
297.201
297.143
297.084
297.025
296.966
296.907
296.848
296.789
296.73
296.67
296.611
296.551
296.491
296.431
296.371
296.311
296.251
296.191
296.13
296.07
296.009
295.948
295.887
295.826
295.765
295.704
295.642
295.581
295.519
295.457
295.395
295.333
295.271
295.209
295.147
295.084
295.021
294.958
294.895
294.832
294.769
294.706
294.642
294.579
294.515
294.451
294.387
294.323
294.259
294.194
294.13
294.065
294
293.935
293.87
293.805
293.74
293.674
293.609
293.543
293.477
293.411
293.345
293.278
293.212
293.145
293.079
293.012
292.945
292.878
292.81
292.743
292.675
292.608
292.54
292.472
292.404
292.335
292.267
292.198
292.129
292.061
291.991
291.922
291.853
291.783
291.713
291.644
291.574
291.503
291.433
291.362
291.292
291.221
291.15
291.079
291.007
290.936
290.864
290.792
290.72
290.647
290.575
290.502
290.429
290.356
290.283
290.21
290.136
290.062
289.988
289.914
289.84
289.765
289.69
289.615
289.54
289.465
289.389
289.313
289.237
289.161
289.084
289.008
288.931
288.854
288.776
288.699
288.621
288.543
288.464
288.386
288.307
288.228
288.149
288.069
287.989
287.909
287.829
287.748
287.668
287.587
287.505
287.423
287.342
287.259
287.177
287.094
287.011
286.927
286.845
286.759
286.677
286.589
286.51
286.416
286.342
286.241
286.173
286.065
286.003
285.888
285.83
285.712
285.653
285.535
285.476
285.356
285.296
285.176
285.116
284.994
284.933
284.811
284.749
284.625
284.563
284.438
284.375
284.249
284.186
284.058
283.994
283.866
283.8
283.673
283.601
283.48
283.398
283.285
283.194
283.086
282.991
282.88
282.788
282.671
282.583
282.459
282.373
282.246
282.161
282.029
281.946
281.809
281.728
281.586
281.506
281.36
281.281
281.13
281.051
280.897
280.817
280.66
280.579
280.418
280.336
280.171
280.088
279.92
279.835
279.664
279.576
279.401
279.312
279.133
279.041
278.857
278.763
278.574
278.477
278.283
278.184
277.984
277.881
277.675
277.569
277.357
277.249
277.031
276.92
276.698
276.587
276.362
275.91
275.683
275.233
275.007
274.556
274.328
273.871
273.637
273.168
272.927
272.444
272.196
271.701
271.44
270.941
270.666
270.164
269.874
269.371
269.066
268.561
268.243
267.732
267.404
266.886
266.548
266.024
265.677
265.145
264.79
264.252
263.888
263.344
262.97
262.42
262.039
261.483
261.094
260.533
260.138
259.571
259.169
258.598
258.189
257.612
257.197
256.614
256.195
255.607
255.182
254.594
254.161
253.574
253.136
252.548
252.107
251.516
251.073
250.48
250.034
249.44
248.99
248.399
247.945
247.359
246.902
246.324
245.868
245.296
244.849
244.284
243.846
243.296
242.865
242.332
241.914
241.399
240.991
240.492
240.098
239.62
239.255
238.819
238.5
238.115
237.846
237.523
237.31
237.058
236.905
236.731
236.642
236.548
236.519
236.494
236.498
236.489
236.684
237.074
)
;

boundaryField
{
    sideLeft
    {
        type            symmetryPlane;
    }
    sideRight
    {
        type            zeroGradient;
    }
    topbottom
    {
        type            empty;
    }
    frontback
    {
        type            empty;
    }
}


// ************************************************************************* //
