/*--------------------------------*- C++ -*----------------------------------*\
| =========                 |                                                 |
| \\      /  F ield         | OpenFOAM: The Open Source CFD Toolbox           |
|  \\    /   O peration     | Version:  2.4.0                                 |
|   \\  /    A nd           | Web:      www.OpenFOAM.org                      |
|    \\/     M anipulation  |                                                 |
\*---------------------------------------------------------------------------*/
FoamFile
{
    version     2.0;
    format      ascii;
    class       volScalarField;
    location    "0.13";
    object      T.water;
}
// * * * * * * * * * * * * * * * * * * * * * * * * * * * * * * * * * * * * * //

dimensions      [0 0 0 1 0 0 0];

internalField   nonuniform List<scalar> 
1000
(
300
300
300
300
300
300
300
300
300
300
300
300
300
300
300
300
300
300
300
300
300
300
300
300
300
300
300
300
300
300
300
300
300
300
300
300
300
300
300
300
300
300
300
300
300
300
300
300
300
300
300
300
300
300
300
300
300
300
300
300
300
300
300
300
300
300
300
300
300
300
300
300
300
300
300
300
300
300
300
300
300
300
300
300
300
300
300
300
300
300
300
300
300
300
300
300
300
300
300
300
300
300
300
300
300
300
300
300
300
300
300
300
300
300
300
300
300
300
300
300
300
300
300
300
300
300
300
300
300
300
300
300
300
300
300
300
300
300
300
300
300
300
300
300
300
300
300
300
300
300
300
300
300
300
300
300
300
300
300
300
300
300
300
300
300
300
300
300
300
300
300
300
300
300
300
300
300
300
300
300
300
300
300
300
300
300
300
300
300
300
300
300
300
300
300
300
300
300
300
300
300
300
300
300
300
300
300
300
300
300
300
300
300
300
300
300
300
300
300
300
300
300
300
300
300
300
300
300
300
300
300
300
300
300
300
300
300
300
300
300
300
300
300
300
300
300
300
300
300
300
300
300
300
300
300
300
300
300
300
300
300
300
300
300
300
300
300
300
300
300
300
300
300
300
300
300
300
300
300
300
300
300
300
300
300
300
300
300
300
300
300
300
300
300
300
300
300
300
300
300
300
300
300
300
300
300
300
300
300
300
300
300
300
300
300
300
300
300
300
300
300
300
300
300
300
300
300
300
300
300
300
300
300
300
300
300
300
300
300
300
300
300
300
300
300
300
300
300
300
300
300
300
300
300
300
300
300
300
300
300
300
300
300
300
300
300
300
300
300
300
300
300
300
300
300
300
300
300
300
300
300
300
300
300
300
300
300
300
300
300
300
300
300
300
300
300
300
300
300
300
300
300
300
300
300
300
300
300
300
300
300
300
300
300
300
300
300
300
300
300
300
300
300
300
300
300
300
300
300
300
300
300
300
300
300
300
300
300
300
300
300
300
300
300
300
300
300
300
300
300
300
300
300
300
300
300
300
300
300
300
300
300
300
300
300
300
300
300
300
300
300
300
300
300
300
300
300
300
300
300
300
300
300
300
300
300
300
300
300
300
300
300
300
300
300
300
300
300
300
300
300
300
300
300
300
300
300
300
300
300
300
300
300
300
300
300
300
300
300
300
300
300
300
300
300
300
300
300
300
300
300
300
300
300
300
300
300
300
300
300
300
300
300
300
300
300
300
300
300
300
300
300
300
300
300
300
300
300
300
300
300
300
300
300
300
300
300
300
300
300
299.999
299.999
299.999
299.999
299.999
299.998
299.998
299.997
299.996
299.995
299.994
299.993
299.991
299.99
299.987
299.985
299.982
299.978
299.974
299.969
299.964
299.958
299.951
299.943
299.934
299.924
299.913
299.9
299.887
299.872
299.855
299.837
299.818
299.797
299.775
299.751
299.725
299.698
299.669
299.639
299.607
299.574
299.539
299.503
299.465
299.426
299.385
299.344
299.301
299.257
299.212
299.166
299.119
299.071
299.022
298.972
298.922
298.871
298.819
298.767
298.715
298.661
298.608
298.554
298.499
298.444
298.389
298.334
298.278
298.222
298.166
298.11
298.054
297.997
297.94
297.883
297.826
297.769
297.711
297.654
297.596
297.538
297.48
297.422
297.364
297.306
297.248
297.189
297.131
297.072
297.013
296.955
296.896
296.837
296.777
296.718
296.659
296.599
296.54
296.48
296.42
296.36
296.3
296.24
296.18
296.119
296.059
295.998
295.937
295.877
295.816
295.755
295.693
295.632
295.57
295.509
295.447
295.385
295.323
295.261
295.199
295.137
295.074
295.011
294.949
294.886
294.823
294.759
294.696
294.633
294.569
294.506
294.442
294.378
294.314
294.249
294.185
294.121
294.056
293.991
293.926
293.861
293.796
293.731
293.665
293.6
293.534
293.468
293.402
293.336
293.27
293.203
293.137
293.07
293.003
292.936
292.869
292.802
292.735
292.667
292.599
292.532
292.464
292.396
292.327
292.259
292.19
292.122
292.053
291.984
291.914
291.845
291.776
291.706
291.636
291.566
291.496
291.425
291.355
291.284
291.213
291.142
291.071
291
290.928
290.857
290.785
290.713
290.64
290.568
290.495
290.422
290.349
290.276
290.203
290.129
290.055
289.981
289.907
289.833
289.758
289.684
289.609
289.533
289.458
289.382
289.307
289.231
289.154
289.078
289.001
288.924
288.847
288.77
288.692
288.615
288.537
288.458
288.38
288.301
288.222
288.143
288.063
287.983
287.903
287.823
287.743
287.662
287.581
287.499
287.418
287.336
287.254
287.171
287.088
287.006
286.922
286.839
286.754
286.672
286.583
286.504
286.411
286.336
286.236
286.168
286.06
285.998
285.883
285.825
285.707
285.648
285.53
285.471
285.351
285.291
285.171
285.111
284.989
284.928
284.806
284.744
284.621
284.558
284.434
284.371
284.245
284.181
284.054
283.99
283.861
283.795
283.668
283.596
283.475
283.394
283.281
283.19
283.082
282.987
282.876
282.784
282.666
282.579
282.455
282.369
282.242
282.157
282.025
281.942
281.805
281.724
281.583
281.502
281.356
281.277
281.126
281.048
280.893
280.814
280.656
280.575
280.414
280.332
280.168
280.084
279.917
279.831
279.66
279.573
279.398
279.308
279.129
279.038
278.854
278.76
278.571
278.474
278.28
278.18
277.98
277.878
277.672
277.566
277.354
277.246
277.028
276.917
276.695
276.584
276.359
275.908
275.681
275.23
275.004
274.553
274.325
273.868
273.634
273.165
272.925
272.441
272.193
271.699
271.438
270.938
270.663
270.161
269.871
269.368
269.064
268.558
268.24
267.73
267.401
266.884
266.545
266.021
265.674
265.143
264.787
264.249
263.885
263.341
262.967
262.417
262.036
261.48
261.091
260.53
260.135
259.568
259.166
258.595
258.186
257.608
257.194
256.611
256.191
255.604
255.179
254.591
254.158
253.571
253.133
252.545
252.104
251.512
251.07
250.476
250.03
249.436
248.986
248.395
247.941
247.355
246.898
246.32
245.864
245.292
244.844
244.28
243.841
243.291
242.86
242.327
241.908
241.395
240.988
240.489
240.093
239.614
239.25
238.813
238.494
238.109
237.84
237.517
237.303
237.052
236.898
236.725
236.635
236.542
236.512
236.488
236.492
236.483
236.679
237.07
)
;

boundaryField
{
    sideLeft
    {
        type            symmetryPlane;
    }
    sideRight
    {
        type            zeroGradient;
    }
    topbottom
    {
        type            empty;
    }
    frontback
    {
        type            empty;
    }
}


// ************************************************************************* //
