/*--------------------------------*- C++ -*----------------------------------*\
| =========                 |                                                 |
| \\      /  F ield         | OpenFOAM: The Open Source CFD Toolbox           |
|  \\    /   O peration     | Version:  2.4.0                                 |
|   \\  /    A nd           | Web:      www.OpenFOAM.org                      |
|    \\/     M anipulation  |                                                 |
\*---------------------------------------------------------------------------*/
FoamFile
{
    version     2.0;
    format      ascii;
    class       volVectorField;
    location    "0.13";
    object      U;
}
// * * * * * * * * * * * * * * * * * * * * * * * * * * * * * * * * * * * * * //

dimensions      [0 1 -1 0 0 0 0];

internalField   nonuniform List<vector> 
1000
(
(4.26338e-14 0 0)
(3.55268e-14 0 0)
(-2.84214e-14 0 0)
(4.26321e-14 0 0)
(1.27898e-13 0 0)
(5.1159e-13 0 0)
(1.70531e-13 0 0)
(-4.9905e-21 0 0)
(1.7053e-13 0 0)
(1.84741e-13 0 0)
(4.1922e-13 0 0)
(3.48166e-13 0 0)
(1.91846e-13 0 0)
(-1.06581e-13 0 0)
(7.8159e-14 0 0)
(7.10613e-15 0 0)
(1.56319e-13 0 0)
(1.20793e-13 0 0)
(1.06581e-13 0 0)
(-7.10449e-15 0 0)
(-7.81607e-14 0 0)
(-1.63424e-13 0 0)
(-2.27374e-13 0 0)
(-3.26849e-13 0 0)
(-2.91322e-13 0 0)
(-1.42109e-13 0 0)
(-4.54747e-13 0 0)
(-4.54748e-13 0 0)
(-4.76063e-13 0 0)
(-5.89751e-13 0 0)
(-4.12114e-13 0 0)
(-3.12639e-13 0 0)
(-2.98428e-13 0 0)
(-2.34479e-13 0 0)
(-1.13688e-13 0 0)
(-1.8474e-13 0 0)
(-1.20794e-13 0 0)
(-2.91321e-13 0 0)
(-3.55281e-14 0 0)
(1.70531e-13 0 0)
(3.76587e-13 0 0)
(5.25802e-13 0 0)
(2.70006e-13 0 0)
(2.34479e-13 0 0)
(1.27897e-13 0 0)
(3.55271e-14 0 0)
(-1.56319e-13 0 0)
(-2.98428e-13 0 0)
(-3.83693e-13 0 0)
(-3.2685e-13 0 0)
(-2.84217e-13 0 0)
(-3.97904e-13 0 0)
(2.93848e-19 0 0)
(-1.5632e-13 0 0)
(-2.55795e-13 0 0)
(-2.4869e-13 0 0)
(-3.12639e-13 0 0)
(-4.0501e-13 0 0)
(-6.89226e-13 0 0)
(-8.95284e-13 0 0)
(-1.14397e-12 0 0)
(-1.13687e-12 0 0)
(-1.23634e-12 0 0)
(-1.0445e-12 0 0)
(-1.03739e-12 0 0)
(-1.10845e-12 0 0)
(-9.59233e-13 0 0)
(-9.23706e-13 0 0)
(-1.05871e-12 0 0)
(-1.05871e-12 0 0)
(-9.52127e-13 0 0)
(-1.16529e-12 0 0)
(-1.26477e-12 0 0)
(-1.27898e-12 0 0)
(-1.03739e-12 0 0)
(-8.73967e-13 0 0)
(-7.24754e-13 0 0)
(-4.61852e-13 0 0)
(-1.06581e-13 0 0)
(-2.91323e-13 0 0)
(-3.48166e-13 0 0)
(5.68431e-14 0 0)
(-2.06057e-13 0 0)
(3.83692e-13 0 0)
(5.40013e-13 0 0)
(6.03961e-13 0 0)
(5.96856e-13 0 0)
(8.17124e-13 0 0)
(1.10845e-12 0 0)
(1.14397e-12 0 0)
(9.80549e-13 0 0)
(6.75016e-13 0 0)
(5.89751e-13 0 0)
(5.11591e-13 0 0)
(3.83693e-13 0 0)
(2.629e-13 0 0)
(2.62902e-13 0 0)
(4.97379e-13 0 0)
(5.32908e-13 0 0)
(5.25801e-13 0 0)
(3.33955e-13 0 0)
(1.98952e-13 0 0)
(-8.5265e-14 0 0)
(-8.52653e-14 0 0)
(5.68434e-14 0 0)
(2.84221e-14 0 0)
(-3.05534e-13 0 0)
(-3.12639e-13 0 0)
(-2.41584e-13 0 0)
(-4.0501e-13 0 0)
(-7.8159e-14 0 0)
(3.97903e-13 0 0)
(4.40537e-13 0 0)
(7.74491e-13 0 0)
(1.00187e-12 0 0)
(9.87655e-13 0 0)
(1.01608e-12 0 0)
(8.73968e-13 0 0)
(9.52127e-13 0 0)
(1.0445e-12 0 0)
(1.20792e-12 0 0)
(1.33582e-12 0 0)
(1.4353e-12 0 0)
(1.25766e-12 0 0)
(1.33582e-12 0 0)
(1.15108e-12 0 0)
(1.15818e-12 0 0)
(8.66863e-13 0 0)
(4.19219e-13 0 0)
(3.1264e-13 0 0)
(6.67909e-13 0 0)
(6.39489e-13 0 0)
(6.60804e-13 0 0)
(6.11067e-13 0 0)
(6.6791e-13 0 0)
(5.25802e-13 0 0)
(5.40013e-13 0 0)
(2.70006e-13 0 0)
(-7.10565e-15 0 0)
(1.35003e-13 0 0)
(1.20792e-13 0 0)
(1.20792e-13 0 0)
(1.91847e-13 0 0)
(5.47117e-13 0 0)
(5.11592e-13 0 0)
(7.67386e-13 0 0)
(6.82121e-13 0 0)
(7.17648e-13 0 0)
(6.46594e-13 0 0)
(3.05533e-13 0 0)
(2.84217e-13 0 0)
(1.42109e-13 0 0)
(1.27898e-13 0 0)
(4.26326e-13 0 0)
(4.1922e-13 0 0)
(3.62376e-13 0 0)
(4.19221e-13 0 0)
(5.61328e-13 0 0)
(1.98952e-13 0 0)
(3.55268e-14 0 0)
(2.84225e-14 0 0)
(2.84216e-13 0 0)
(4.26331e-14 0 0)
(6.39483e-14 0 0)
(2.62901e-13 0 0)
(4.26319e-14 0 0)
(1.35004e-13 0 0)
(3.26849e-13 0 0)
(2.84218e-13 0 0)
(3.62377e-13 0 0)
(3.55274e-14 0 0)
(4.26322e-14 0 0)
(2.13167e-14 0 0)
(1.98951e-13 0 0)
(9.23711e-14 0 0)
(4.2632e-14 0 0)
(4.97386e-14 0 0)
(-4.97387e-14 0 0)
(-3.33955e-13 0 0)
(-9.23705e-14 0 0)
(-3.55272e-14 0 0)
(-1.13687e-13 0 0)
(2.91322e-13 0 0)
(9.94768e-14 0 0)
(1.06581e-13 0 0)
(1.5632e-13 0 0)
(3.62376e-13 0 0)
(2.13164e-13 0 0)
(2.62899e-13 0 0)
(2.13177e-14 0 0)
(-5.68447e-14 0 0)
(-7.10531e-14 0 0)
(-1.42118e-14 0 0)
(-8.52646e-14 0 0)
(9.94756e-14 0 0)
(9.2371e-14 0 0)
(3.48166e-13 0 0)
(4.0501e-13 0 0)
(3.76587e-13 0 0)
(1.42112e-14 0 0)
(1.42108e-13 0 0)
(1.5632e-13 0 0)
(4.61852e-13 0 0)
(4.90275e-13 0 0)
(3.97904e-13 0 0)
(1.91847e-13 0 0)
(-6.39492e-14 0 0)
(-7.10542e-14 0 0)
(7.10545e-14 0 0)
(2.13163e-13 0 0)
(7.10543e-14 0 0)
(-1.20793e-13 0 0)
(2.06058e-13 0 0)
(4.12114e-13 0 0)
(3.05534e-13 0 0)
(5.61328e-13 0 0)
(5.96856e-13 0 0)
(6.75016e-13 0 0)
(5.82645e-13 0 0)
(1.42108e-13 0 0)
(7.81595e-14 0 0)
(1.63425e-13 0 0)
(3.33955e-13 0 0)
(3.97904e-13 0 0)
(4.47642e-13 0 0)
(6.03961e-13 0 0)
(4.33431e-13 0 0)
(1.06582e-13 0 0)
(1.77635e-13 0 0)
(2.13163e-13 0 0)
(3.55272e-13 0 0)
(5.96856e-13 0 0)
(4.0501e-13 0 0)
(5.68434e-13 0 0)
(4.54748e-13 0 0)
(5.96855e-13 0 0)
(5.96857e-13 0 0)
(6.03961e-13 0 0)
(4.0501e-13 0 0)
(1.49214e-13 0 0)
(-7.81595e-14 0 0)
(-5.68439e-14 0 0)
(-4.26317e-14 0 0)
(9.94751e-14 0 0)
(2.13166e-14 0 0)
(-1.7053e-13 0 0)
(-3.55271e-13 0 0)
(-7.74492e-13 0 0)
(-1.03739e-12 0 0)
(-1.03029e-12 0 0)
(-1.00897e-12 0 0)
(-6.96332e-13 0 0)
(-4.76064e-13 0 0)
(-4.83168e-13 0 0)
(-3.19745e-13 0 0)
(-1.20792e-13 0 0)
(1.35003e-13 0 0)
(4.33432e-13 0 0)
(5.40012e-13 0 0)
(3.62378e-13 0 0)
(6.32382e-13 0 0)
(7.53176e-13 0 0)
(7.95808e-13 0 0)
(7.81597e-13 0 0)
(7.17648e-13 0 0)
(7.03437e-13 0 0)
(7.10544e-13 0 0)
(9.16599e-13 0 0)
(6.03962e-13 0 0)
(7.17647e-13 0 0)
(3.33956e-13 0 0)
(3.12638e-13 0 0)
(-7.10487e-15 0 0)
(-4.1264e-19 0 0)
(1.13687e-13 0 0)
(4.26319e-14 0 0)
(-9.23697e-14 0 0)
(2.13154e-14 0 0)
(-1.42101e-14 0 0)
(-5.47118e-13 0 0)
(-6.25277e-13 0 0)
(-5.32907e-13 0 0)
(-4.76064e-13 0 0)
(-5.1159e-13 0 0)
(-5.11592e-13 0 0)
(-4.47642e-13 0 0)
(-3.41061e-13 0 0)
(-2.98428e-13 0 0)
(-3.2685e-13 0 0)
(-3.26849e-13 0 0)
(-6.39491e-14 0 0)
(-7.81595e-14 0 0)
(-1.42109e-13 0 0)
(4.97389e-14 0 0)
(2.629e-13 0 0)
(7.10547e-14 0 0)
(1.63425e-13 0 0)
(2.20268e-13 0 0)
(1.98952e-13 0 0)
(4.26332e-14 0 0)
(2.27373e-13 0 0)
(1.42112e-14 0 0)
(-1.63425e-13 0 0)
(-1.77636e-13 0 0)
(-2.91322e-13 0 0)
(-5.54224e-13 0 0)
(-3.69482e-13 0 0)
(-9.9476e-14 0 0)
(2.06057e-13 0 0)
(1.91847e-13 0 0)
(1.98952e-13 0 0)
(3.12639e-13 0 0)
(5.18696e-13 0 0)
(8.66862e-13 0 0)
(1.14397e-12 0 0)
(1.35003e-12 0 0)
(1.39266e-12 0 0)
(1.30029e-12 0 0)
(1.0516e-12 0 0)
(9.09494e-13 0 0)
(1.00897e-12 0 0)
(8.52652e-13 0 0)
(8.88178e-13 0 0)
(9.23706e-13 0 0)
(7.17648e-13 0 0)
(5.82645e-13 0 0)
(4.54748e-13 0 0)
(4.61853e-13 0 0)
(5.18696e-13 0 0)
(4.12115e-13 0 0)
(1.91846e-13 0 0)
(2.55795e-13 0 0)
(9.23712e-14 0 0)
(9.23696e-14 0 0)
(-2.20267e-13 0 0)
(-2.3448e-13 0 0)
(-8.52647e-14 0 0)
(7.10554e-15 0 0)
(2.84216e-14 0 0)
(-5.68432e-14 0 0)
(-3.05534e-13 0 0)
(-2.06057e-13 0 0)
(-2.06058e-13 0 0)
(-4.12114e-13 0 0)
(-9.23712e-14 0 0)
(-1.98951e-13 0 0)
(-8.69108e-19 0 0)
(7.81602e-14 0 0)
(1.63425e-13 0 0)
(7.81598e-14 0 0)
(3.5527e-14 0 0)
(1.13687e-13 0 0)
(3.62377e-13 0 0)
(2.62902e-13 0 0)
(-7.10549e-14 0 0)
(-3.12639e-13 0 0)
(-2.55795e-13 0 0)
(-2.70006e-13 0 0)
(-2.77112e-13 0 0)
(-6.11067e-13 0 0)
(-6.53699e-13 0 0)
(-6.53699e-13 0 0)
(-7.24753e-13 0 0)
(-5.68434e-13 0 0)
(-3.2685e-13 0 0)
(-4.54748e-13 0 0)
(-2.98427e-13 0 0)
(-7.10601e-15 0 0)
(-1.84741e-13 0 0)
(3.5527e-14 0 0)
(9.23707e-14 0 0)
(1.77635e-13 0 0)
(2.70006e-13 0 0)
(4.76063e-13 0 0)
(6.18173e-13 0 0)
(5.96855e-13 0 0)
(4.40537e-13 0 0)
(3.55271e-13 0 0)
(9.23715e-14 0 0)
(2.13162e-13 0 0)
(3.55277e-14 0 0)
(-3.55275e-14 0 0)
(-7.10542e-14 0 0)
(1.91847e-13 0 0)
(6.39484e-14 0 0)
(-7.10532e-14 0 0)
(2.13153e-14 0 0)
(-1.35002e-13 0 0)
(-2.06058e-13 0 0)
(-3.48165e-13 0 0)
(-4.90275e-13 0 0)
(-6.46594e-13 0 0)
(-5.04486e-13 0 0)
(-3.69481e-13 0 0)
(-1.4211e-13 0 0)
(-2.48689e-13 0 0)
(-1.13687e-13 0 0)
(-2.34479e-13 0 0)
(-2.55796e-13 0 0)
(-2.98428e-13 0 0)
(-2.98428e-13 0 0)
(-2.84217e-13 0 0)
(-2.55795e-13 0 0)
(-1.63425e-13 0 0)
(-1.56319e-13 0 0)
(1.27898e-13 0 0)
(1.91847e-13 0 0)
(5.96856e-13 0 0)
(5.54224e-13 0 0)
(4.05009e-13 0 0)
(3.97905e-13 0 0)
(3.83692e-13 0 0)
(4.0501e-13 0 0)
(5.54223e-13 0 0)
(3.19745e-13 0 0)
(4.33431e-13 0 0)
(5.96856e-13 0 0)
(9.3081e-13 0 0)
(1.07292e-12 0 0)
(1.23634e-12 0 0)
(1.00897e-12 0 0)
(9.80549e-13 0 0)
(1.08003e-12 0 0)
(1.03029e-12 0 0)
(9.02389e-13 0 0)
(7.10543e-13 0 0)
(7.81597e-13 0 0)
(9.45022e-13 0 0)
(1.08713e-12 0 0)
(1.01608e-12 0 0)
(1.10134e-12 0 0)
(1.10134e-12 0 0)
(1.10845e-12 0 0)
(1.18661e-12 0 0)
(1.06581e-12 0 0)
(7.60281e-13 0 0)
(7.10542e-13 0 0)
(5.18697e-13 0 0)
(1.98951e-13 0 0)
(-7.81589e-14 0 0)
(-1.5632e-13 0 0)
(-5.68428e-14 0 0)
(7.81596e-14 0 0)
(3.62377e-13 0 0)
(3.62377e-13 0 0)
(9.23705e-14 0 0)
(-7.10541e-14 0 0)
(5.68431e-14 0 0)
(6.3949e-14 0 0)
(2.20268e-13 0 0)
(5.32907e-13 0 0)
(5.68435e-13 0 0)
(6.96331e-13 0 0)
(5.11591e-13 0 0)
(6.11067e-13 0 0)
(7.95808e-13 0 0)
(7.67386e-13 0 0)
(4.26326e-13 0 0)
(1.13686e-13 0 0)
(2.06059e-13 0 0)
(3.5527e-13 0 0)
(7.10636e-15 0 0)
(4.97371e-14 0 0)
(1.35004e-13 0 0)
(1.63424e-13 0 0)
(-2.13157e-14 0 0)
(4.83169e-13 0 0)
(2.3448e-13 0 0)
(4.26321e-14 0 0)
(4.97381e-14 0 0)
(-8.5265e-14 0 0)
(-2.34479e-13 0 0)
(-1.63425e-13 0 0)
(4.97378e-14 0 0)
(1.7053e-13 0 0)
(2.84217e-13 0 0)
(4.19221e-13 0 0)
(4.54747e-13 0 0)
(4.90275e-13 0 0)
(7.53175e-13 0 0)
(8.10019e-13 0 0)
(7.6028e-13 0 0)
(5.54224e-13 0 0)
(5.82644e-13 0 0)
(2.91323e-13 0 0)
(3.97904e-13 0 0)
(2.62901e-13 0 0)
(4.68958e-13 0 0)
(3.55272e-13 0 0)
(2.13162e-13 0 0)
(-4.33431e-13 0 0)
(-4.90275e-13 0 0)
(-3.55271e-13 0 0)
(-4.76063e-13 0 0)
(-7.4607e-13 0 0)
(-1.12266e-12 0 0)
(-1.11555e-12 0 0)
(-9.52127e-13 0 0)
(-9.0239e-13 0 0)
(-9.73443e-13 0 0)
(-8.2423e-13 0 0)
(-8.88178e-13 0 0)
(-7.6028e-13 0 0)
(-6.60805e-13 0 0)
(-6.46594e-13 0 0)
(-4.8317e-13 0 0)
(-2.84216e-13 0 0)
(1.06581e-13 0 0)
(5.40014e-13 0 0)
(1.12976e-12 0 0)
(1.39266e-12 0 0)
(1.93978e-12 0 0)
(2.55795e-12 0 0)
(3.46745e-12 0 0)
(5.07328e-12 0 0)
(7.86571e-12 0 0)
(1.21503e-11 0 0)
(1.87796e-11 0 0)
(2.91394e-11 0 0)
(4.50342e-11 0 0)
(7.05853e-11 0 0)
(1.0985e-10 0 0)
(1.71248e-10 0 0)
(2.65757e-10 0 0)
(4.11454e-10 0 0)
(6.34799e-10 0 0)
(9.7571e-10 0 0)
(1.49372e-09 0 0)
(2.27911e-09 0 0)
(3.46565e-09 0 0)
(5.25124e-09 0 0)
(7.92883e-09 0 0)
(1.19292e-08 0 0)
(1.78839e-08 0 0)
(2.67151e-08 0 0)
(3.97635e-08 0 0)
(5.89705e-08 0 0)
(8.71369e-08 0 0)
(1.28286e-07 0 0)
(1.88171e-07 0 0)
(2.74991e-07 0 0)
(4.00371e-07 0 0)
(5.80735e-07 0 0)
(8.39177e-07 0 0)
(1.20804e-06 0 0)
(1.7324e-06 0 0)
(2.47485e-06 0 0)
(3.52184e-06 0 0)
(4.99231e-06 0 0)
(7.04911e-06 0 0)
(9.91419e-06 0 0)
(1.38887e-05 0 0)
(1.93791e-05 0 0)
(2.69318e-05 0 0)
(3.72774e-05 0 0)
(5.13882e-05 0 0)
(7.05518e-05 0 0)
(9.64649e-05 0 0)
(0.000131352 0 0)
(0.000178113 0 0)
(0.000240513 0 0)
(0.000323411 0 0)
(0.000433044 0 0)
(0.000577376 0 0)
(0.000766522 0 0)
(0.00101325 0 0)
(0.00133361 0 0)
(0.00174761 0 0)
(0.0022801 0 0)
(0.00296175 0 0)
(0.00383014 0 0)
(0.00493109 0 0)
(0.0063201 0 0)
(0.00806391 0 0)
(0.0102423 0 0)
(0.0129502 0 0)
(0.0162991 0 0)
(0.0204201 0 0)
(0.0254653 0 0)
(0.0316102 0 0)
(0.0390563 0 0)
(0.048032 0 0)
(0.0587955 0 0)
(0.0716354 0 0)
(0.0868719 0 0)
(0.104857 0 0)
(0.125975 0 0)
(0.150642 0 0)
(0.1793 0 0)
(0.212422 0 0)
(0.250502 0 0)
(0.294052 0 0)
(0.343601 0 0)
(0.399684 0 0)
(0.462837 0 0)
(0.533594 0 0)
(0.612472 0 0)
(0.699971 0 0)
(0.796563 0 0)
(0.902684 0 0)
(1.01873 0 0)
(1.14505 0 0)
(1.28194 0 0)
(1.42965 0 0)
(1.58834 0 0)
(1.75813 0 0)
(1.93909 0 0)
(2.1312 0 0)
(2.33439 0 0)
(2.54854 0 0)
(2.77345 0 0)
(3.0089 0 0)
(3.25459 0 0)
(3.5102 0 0)
(3.77536 0 0)
(4.04967 0 0)
(4.33272 0 0)
(4.62405 0 0)
(4.92322 0 0)
(5.22975 0 0)
(5.54317 0 0)
(5.863 0 0)
(6.18879 0 0)
(6.52007 0 0)
(6.85638 0 0)
(7.19731 0 0)
(7.54241 0 0)
(7.89131 0 0)
(8.24361 0 0)
(8.59896 0 0)
(8.95703 0 0)
(9.31749 0 0)
(9.68006 0 0)
(10.0445 0 0)
(10.4105 0 0)
(10.7778 0 0)
(11.1463 0 0)
(11.5158 0 0)
(11.8861 0 0)
(12.2571 0 0)
(12.6286 0 0)
(13.0005 0 0)
(13.3727 0 0)
(13.7452 0 0)
(14.1178 0 0)
(14.4905 0 0)
(14.8633 0 0)
(15.236 0 0)
(15.6087 0 0)
(15.9813 0 0)
(16.3538 0 0)
(16.7262 0 0)
(17.0985 0 0)
(17.4706 0 0)
(17.8426 0 0)
(18.2144 0 0)
(18.5861 0 0)
(18.9577 0 0)
(19.3291 0 0)
(19.7003 0 0)
(20.0715 0 0)
(20.4425 0 0)
(20.8135 0 0)
(21.1843 0 0)
(21.5551 0 0)
(21.9257 0 0)
(22.2963 0 0)
(22.6669 0 0)
(23.0374 0 0)
(23.4079 0 0)
(23.7784 0 0)
(24.1489 0 0)
(24.5194 0 0)
(24.8899 0 0)
(25.2604 0 0)
(25.631 0 0)
(26.0016 0 0)
(26.3723 0 0)
(26.7431 0 0)
(27.114 0 0)
(27.485 0 0)
(27.856 0 0)
(28.2272 0 0)
(28.5985 0 0)
(28.97 0 0)
(29.3416 0 0)
(29.7134 0 0)
(30.0853 0 0)
(30.4574 0 0)
(30.8297 0 0)
(31.2021 0 0)
(31.5748 0 0)
(31.9476 0 0)
(32.3207 0 0)
(32.694 0 0)
(33.0675 0 0)
(33.4412 0 0)
(33.8152 0 0)
(34.1893 0 0)
(34.5638 0 0)
(34.9384 0 0)
(35.3134 0 0)
(35.6885 0 0)
(36.064 0 0)
(36.4397 0 0)
(36.8156 0 0)
(37.1919 0 0)
(37.5684 0 0)
(37.9451 0 0)
(38.3222 0 0)
(38.6995 0 0)
(39.0772 0 0)
(39.4551 0 0)
(39.8333 0 0)
(40.2118 0 0)
(40.5906 0 0)
(40.9697 0 0)
(41.3492 0 0)
(41.7289 0 0)
(42.109 0 0)
(42.4894 0 0)
(42.8702 0 0)
(43.2512 0 0)
(43.6327 0 0)
(44.0145 0 0)
(44.3966 0 0)
(44.7791 0 0)
(45.162 0 0)
(45.5452 0 0)
(45.9289 0 0)
(46.3129 0 0)
(46.6974 0 0)
(47.0823 0 0)
(47.4676 0 0)
(47.8533 0 0)
(48.2394 0 0)
(48.626 0 0)
(49.0131 0 0)
(49.4006 0 0)
(49.7886 0 0)
(50.1771 0 0)
(50.5661 0 0)
(50.9555 0 0)
(51.3455 0 0)
(51.736 0 0)
(52.127 0 0)
(52.5186 0 0)
(52.9106 0 0)
(53.3033 0 0)
(53.6965 0 0)
(54.0903 0 0)
(54.4846 0 0)
(54.8796 0 0)
(55.2751 0 0)
(55.6713 0 0)
(56.068 0 0)
(56.4654 0 0)
(56.8634 0 0)
(57.262 0 0)
(57.6613 0 0)
(58.0613 0 0)
(58.4619 0 0)
(58.8632 0 0)
(59.2651 0 0)
(59.6678 0 0)
(60.0711 0 0)
(60.4752 0 0)
(60.88 0 0)
(61.2855 0 0)
(61.6917 0 0)
(62.0987 0 0)
(62.5065 0 0)
(62.915 0 0)
(63.3243 0 0)
(63.7344 0 0)
(64.1453 0 0)
(64.557 0 0)
(64.9695 0 0)
(65.3829 0 0)
(65.7971 0 0)
(66.2122 0 0)
(66.6282 0 0)
(67.045 0 0)
(67.4627 0 0)
(67.8814 0 0)
(68.301 0 0)
(68.7215 0 0)
(69.143 0 0)
(69.5655 0 0)
(69.9889 0 0)
(70.4134 0 0)
(70.8388 0 0)
(71.2653 0 0)
(71.6928 0 0)
(72.1215 0 0)
(72.5511 0 0)
(72.9819 0 0)
(73.4138 0 0)
(73.8468 0 0)
(74.281 0 0)
(74.7164 0 0)
(75.1528 0 0)
(75.5906 0 0)
(76.0293 0 0)
(76.4699 0 0)
(76.9107 0 0)
(77.3543 0 0)
(77.797 0 0)
(78.2443 0 0)
(78.6883 0 0)
(79.1399 0 0)
(79.5845 0 0)
(80.0416 0 0)
(80.4859 0 0)
(80.9494 0 0)
(81.3927 0 0)
(81.8633 0 0)
(82.3055 0 0)
(82.7829 0 0)
(83.2249 0 0)
(83.7079 0 0)
(84.1521 0 0)
(84.6389 0 0)
(85.0866 0 0)
(85.5758 0 0)
(86.0287 0 0)
(86.5197 0 0)
(86.9779 0 0)
(87.4707 0 0)
(87.9348 0 0)
(88.4286 0 0)
(88.9005 0 0)
(89.3926 0 0)
(89.8765 0 0)
(90.3622 0 0)
(90.8643 0 0)
(91.3367 0 0)
(91.865 0 0)
(92.3159 0 0)
(92.8792 0 0)
(93.3004 0 0)
(93.9059 0 0)
(94.2929 0 0)
(94.9418 0 0)
(95.2986 0 0)
(95.9803 0 0)
(96.3248 0 0)
(97.0188 0 0)
(97.369 0 0)
(98.0691 0 0)
(98.4231 0 0)
(99.1323 0 0)
(99.49 0 0)
(100.207 0 0)
(100.569 0 0)
(101.295 0 0)
(101.662 0 0)
(102.397 0 0)
(102.768 0 0)
(103.513 0 0)
(103.89 0 0)
(104.645 0 0)
(105.027 0 0)
(105.792 0 0)
(106.18 0 0)
(106.958 0 0)
(107.352 0 0)
(108.141 0 0)
(108.541 0 0)
(109.344 0 0)
(109.751 0 0)
(110.567 0 0)
(110.982 0 0)
(111.81 0 0)
(112.238 0 0)
(113.076 0 0)
(113.519 0 0)
(114.367 0 0)
(114.826 0 0)
(115.684 0 0)
(116.162 0 0)
(117.027 0 0)
(117.531 0 0)
(118.402 0 0)
(118.934 0 0)
(119.809 0 0)
(120.374 0 0)
(121.252 0 0)
(121.853 0 0)
(122.737 0 0)
(123.37 0 0)
(124.264 0 0)
(124.931 0 0)
(125.832 0 0)
(126.532 0 0)
(127.438 0 0)
(128.167 0 0)
(129.07 0 0)
(129.816 0 0)
(130.701 0 0)
(131.438 0 0)
(132.277 0 0)
(132.95 0 0)
(133.689 0 0)
(134.293 0 0)
(134.955 0 0)
(135.521 0 0)
(136.152 0 0)
(136.716 0 0)
(137.35 0 0)
(137.929 0 0)
(138.578 0 0)
(139.173 0 0)
(139.834 0 0)
(140.435 0 0)
(141.098 0 0)
(141.698 0 0)
(142.356 0 0)
(142.95 0 0)
(143.598 0 0)
(144.191 0 0)
(144.829 0 0)
(145.421 0 0)
(146.054 0 0)
(146.646 0 0)
(147.274 0 0)
(147.864 0 0)
(148.487 0 0)
(149.074 0 0)
(149.692 0 0)
(150.272 0 0)
(150.884 0 0)
(151.46 0 0)
(152.066 0 0)
(152.638 0 0)
(153.237 0 0)
(153.803 0 0)
(154.393 0 0)
(154.953 0 0)
(155.533 0 0)
(156.084 0 0)
(156.653 0 0)
(157.197 0 0)
(157.758 0 0)
(158.295 0 0)
(158.848 0 0)
(159.378 0 0)
(159.922 0 0)
(160.444 0 0)
(160.977 0 0)
(161.486 0 0)
(162.004 0 0)
(162.5 0 0)
(162.997 0 0)
(163.482 0 0)
(163.954 0 0)
(164.429 0 0)
(164.881 0 0)
(165.344 0 0)
(165.783 0 0)
(166.225 0 0)
(166.656 0 0)
(167.072 0 0)
(167.495 0 0)
(167.881 0 0)
(168.283 0 0)
(168.635 0 0)
(169.001 0 0)
(169.316 0 0)
(169.634 0 0)
(169.904 0 0)
(170.161 0 0)
(170.373 0 0)
(170.561 0 0)
(170.706 0 0)
(170.821 0 0)
(170.898 0 0)
(170.929 0 0)
(170.931 0 0)
(170.949 0 0)
(170.923 0 0)
(170.833 0 0)
(170.602 0 0)
(170.354 0 0)
(169.814 0 0)
(169.406 0 0)
(168.55 0 0)
(167.97 0 0)
(166.77 0 0)
(166.004 0 0)
(164.431 0 0)
(163.475 0 0)
(161.518 0 0)
(160.392 0 0)
(158.102 0 0)
(156.892 0 0)
(154.461 0 0)
(153.38 0 0)
(151.089 0 0)
(151.595 0 0)
)
;

boundaryField
{
    sideLeft
    {
        type            symmetryPlane;
    }
    sideRight
    {
        type            calculated;
        value           uniform (151.153 0 0);
    }
    topbottom
    {
        type            empty;
    }
    frontback
    {
        type            empty;
    }
}


// ************************************************************************* //
