/*--------------------------------*- C++ -*----------------------------------*\
| =========                 |                                                 |
| \\      /  F ield         | OpenFOAM: The Open Source CFD Toolbox           |
|  \\    /   O peration     | Version:  2.4.0                                 |
|   \\  /    A nd           | Web:      www.OpenFOAM.org                      |
|    \\/     M anipulation  |                                                 |
\*---------------------------------------------------------------------------*/
FoamFile
{
    version     2.0;
    format      ascii;
    class       volVectorField;
    location    "0.13";
    object      U.airMean;
}
// * * * * * * * * * * * * * * * * * * * * * * * * * * * * * * * * * * * * * //

dimensions      [0 1 -1 0 0 0 0];

internalField   nonuniform List<vector> 
1000
(
(-6.57354e-14 0 0)
(-3.20566e-14 0 0)
(-6.04287e-14 0 0)
(-2.80448e-14 0 0)
(-7.50657e-14 0 0)
(-1.88298e-14 0 0)
(-5.7827e-14 0 0)
(-4.84427e-14 0 0)
(-4.9246e-14 0 0)
(-3.43248e-14 0 0)
(-5.11208e-14 0 0)
(-7.46341e-14 0 0)
(-3.88233e-14 0 0)
(-8.48603e-14 0 0)
(-2.03e-14 0 0)
(-6.06855e-14 0 0)
(6.83734e-15 0 0)
(-3.04001e-14 0 0)
(2.31797e-14 0 0)
(-4.84913e-14 0 0)
(2.91919e-14 0 0)
(-4.50754e-14 0 0)
(4.27397e-15 0 0)
(-3.77298e-14 0 0)
(-4.42503e-14 0 0)
(-3.32698e-14 0 0)
(-4.15066e-14 0 0)
(-1.81792e-14 0 0)
(-7.69076e-14 0 0)
(-8.53117e-16 0 0)
(-5.69416e-14 0 0)
(-4.56769e-14 0 0)
(-2.65088e-14 0 0)
(-4.54527e-14 0 0)
(-1.14274e-15 0 0)
(-8.28868e-14 0 0)
(4.17354e-14 0 0)
(-6.08711e-14 0 0)
(1.84573e-14 0 0)
(-5.36893e-14 0 0)
(2.3225e-15 0 0)
(-5.13063e-14 0 0)
(-2.20871e-14 0 0)
(-4.51903e-14 0 0)
(-1.58781e-14 0 0)
(-3.22204e-14 0 0)
(-4.01511e-14 0 0)
(-3.43794e-14 0 0)
(-4.51467e-14 0 0)
(-3.66532e-14 0 0)
(-5.46896e-14 0 0)
(-2.28251e-14 0 0)
(-3.75273e-14 0 0)
(-5.82121e-15 0 0)
(-2.08952e-14 0 0)
(8.23121e-15 0 0)
(-1.2194e-14 0 0)
(-3.17017e-15 0 0)
(-3.95771e-14 0 0)
(-2.03345e-15 0 0)
(-4.69119e-14 0 0)
(3.77513e-14 0 0)
(-1.09477e-14 0 0)
(-1.85068e-14 0 0)
(1.43802e-14 0 0)
(2.89783e-16 0 0)
(3.69754e-14 0 0)
(1.99826e-14 0 0)
(7.87624e-15 0 0)
(1.53857e-14 0 0)
(-1.7255e-14 0 0)
(-2.0444e-15 0 0)
(-3.55487e-14 0 0)
(1.399e-15 0 0)
(-1.52057e-14 0 0)
(-3.74399e-14 0 0)
(-4.3292e-15 0 0)
(-3.99705e-14 0 0)
(-3.60135e-14 0 0)
(-1.95892e-14 0 0)
(-3.02582e-14 0 0)
(1.52487e-15 0 0)
(-1.43583e-14 0 0)
(2.94053e-14 0 0)
(-2.99901e-14 0 0)
(6.03939e-15 0 0)
(-3.03618e-14 0 0)
(4.29576e-15 0 0)
(-1.91846e-14 0 0)
(-2.56231e-14 0 0)
(7.18178e-15 0 0)
(-7.11089e-15 0 0)
(-1.2254e-14 0 0)
(6.43303e-15 0 0)
(-2.19939e-14 0 0)
(2.07037e-14 0 0)
(-5.42959e-14 0 0)
(3.093e-14 0 0)
(-4.77427e-14 0 0)
(-2.18083e-14 0 0)
(-4.64694e-14 0 0)
(-1.51565e-14 0 0)
(-3.81616e-14 0 0)
(-3.19417e-14 0 0)
(-4.6229e-14 0 0)
(-5.93793e-14 0 0)
(-2.23168e-14 0 0)
(-4.27856e-14 0 0)
(-8.21768e-14 0 0)
(-4.38133e-14 0 0)
(-9.60487e-14 0 0)
(-4.91698e-14 0 0)
(-8.30951e-14 0 0)
(-7.04314e-14 0 0)
(-8.88177e-14 0 0)
(-7.39674e-14 0 0)
(-5.12137e-14 0 0)
(-3.32152e-14 0 0)
(-2.14421e-14 0 0)
(-6.01609e-14 0 0)
(-7.75054e-15 0 0)
(-3.95771e-14 0 0)
(5.31249e-15 0 0)
(-4.34249e-14 0 0)
(-5.93592e-15 0 0)
(-5.67831e-14 0 0)
(-1.74577e-14 0 0)
(-6.08659e-14 0 0)
(-1.29269e-14 0 0)
(-9.63873e-14 0 0)
(-2.19728e-14 0 0)
(-1.12336e-13 0 0)
(-6.61134e-14 0 0)
(-9.47917e-14 0 0)
(-5.00443e-14 0 0)
(-7.98757e-14 0 0)
(-6.65834e-14 0 0)
(-5.90078e-14 0 0)
(-3.85662e-14 0 0)
(-4.71307e-14 0 0)
(-6.28284e-14 0 0)
(-4.84483e-14 0 0)
(-1.00509e-13 0 0)
(-5.86365e-14 0 0)
(-1.18753e-13 0 0)
(-6.33479e-14 0 0)
(-8.79652e-14 0 0)
(-8.6872e-14 0 0)
(-7.52083e-14 0 0)
(-9.30537e-14 0 0)
(-9.84266e-14 0 0)
(-1.15971e-13 0 0)
(-1.156e-13 0 0)
(-1.07866e-13 0 0)
(-9.31577e-14 0 0)
(-8.12478e-14 0 0)
(-1.1859e-13 0 0)
(-9.21848e-14 0 0)
(-1.19557e-13 0 0)
(-1.00137e-13 0 0)
(-1.40381e-13 0 0)
(-6.58239e-14 0 0)
(-1.11467e-13 0 0)
(-6.20798e-14 0 0)
(-9.45347e-14 0 0)
(-4.85413e-14 0 0)
(-1.13184e-13 0 0)
(-4.87326e-14 0 0)
(-1.09877e-13 0 0)
(-9.3327e-14 0 0)
(-1.07232e-13 0 0)
(-8.95832e-14 0 0)
(-1.24492e-13 0 0)
(-9.03485e-14 0 0)
(-1.42447e-13 0 0)
(-1.03466e-13 0 0)
(-1.60528e-13 0 0)
(-1.18032e-13 0 0)
(-1.76881e-13 0 0)
(-1.78319e-13 0 0)
(-1.69262e-13 0 0)
(-1.72378e-13 0 0)
(-1.5093e-13 0 0)
(-2.03095e-13 0 0)
(-1.33457e-13 0 0)
(-1.95869e-13 0 0)
(-1.23198e-13 0 0)
(-2.2822e-13 0 0)
(-9.13382e-14 0 0)
(-1.9459e-13 0 0)
(-8.51891e-14 0 0)
(-1.84981e-13 0 0)
(-1.01466e-13 0 0)
(-1.63539e-13 0 0)
(-1.28756e-13 0 0)
(-1.62911e-13 0 0)
(-1.38807e-13 0 0)
(-1.46711e-13 0 0)
(-1.24072e-13 0 0)
(-1.51061e-13 0 0)
(-1.19044e-13 0 0)
(-1.81975e-13 0 0)
(-9.42238e-14 0 0)
(-1.47771e-13 0 0)
(-1.26028e-13 0 0)
(-1.22836e-13 0 0)
(-8.3724e-14 0 0)
(-9.8186e-14 0 0)
(-1.05789e-13 0 0)
(-8.40354e-14 0 0)
(-7.6285e-14 0 0)
(-5.51164e-14 0 0)
(-7.97282e-14 0 0)
(-2.04201e-14 0 0)
(-5.33998e-14 0 0)
(-9.445e-15 0 0)
(-4.03587e-14 0 0)
(-2.60113e-14 0 0)
(-1.93103e-14 0 0)
(-3.78784e-15 0 0)
(2.67763e-16 0 0)
(-2.095e-14 0 0)
(-4.06113e-15 0 0)
(-2.13601e-14 0 0)
(-3.46414e-14 0 0)
(-1.20685e-14 0 0)
(-3.04453e-15 0 0)
(-3.68933e-14 0 0)
(-1.1481e-15 0 0)
(-3.53412e-14 0 0)
(-5.32743e-14 0 0)
(-4.8552e-14 0 0)
(-8.40515e-14 0 0)
(-2.68151e-14 0 0)
(-8.04932e-14 0 0)
(-3.17046e-15 0 0)
(-6.61184e-14 0 0)
(-1.37903e-14 0 0)
(-8.59099e-14 0 0)
(-5.72478e-14 0 0)
(-5.99206e-14 0 0)
(-3.00835e-14 0 0)
(-8.24279e-14 0 0)
(5.93528e-15 0 0)
(-3.73688e-14 0 0)
(-2.00375e-14 0 0)
(-2.07203e-14 0 0)
(-2.64005e-15 0 0)
(-1.08821e-14 0 0)
(3.35036e-15 0 0)
(-3.60726e-15 0 0)
(1.74409e-14 0 0)
(1.40578e-14 0 0)
(-2.76508e-14 0 0)
(2.5623e-14 0 0)
(-2.64865e-14 0 0)
(2.88587e-14 0 0)
(-1.74627e-14 0 0)
(3.01431e-14 0 0)
(-1.93536e-14 0 0)
(5.44053e-14 0 0)
(6.49909e-15 0 0)
(2.89516e-14 0 0)
(1.22213e-14 0 0)
(-4.80968e-15 0 0)
(2.54262e-14 0 0)
(-4.83874e-14 0 0)
(5.83132e-14 0 0)
(-1.5566e-14 0 0)
(8.33354e-14 0 0)
(1.03087e-14 0 0)
(7.77112e-14 0 0)
(1.77966e-14 0 0)
(5.36076e-14 0 0)
(1.78402e-14 0 0)
(6.62278e-14 0 0)
(1.28011e-14 0 0)
(9.03969e-14 0 0)
(3.4724e-14 0 0)
(9.2037e-14 0 0)
(8.14666e-14 0 0)
(9.8749e-14 0 0)
(1.07893e-13 0 0)
(3.40793e-14 0 0)
(1.30094e-13 0 0)
(7.86682e-14 0 0)
(9.68687e-14 0 0)
(1.07052e-13 0 0)
(1.17939e-13 0 0)
(8.93208e-14 0 0)
(1.21678e-13 0 0)
(1.08336e-13 0 0)
(1.3069e-13 0 0)
(7.91657e-14 0 0)
(1.62583e-13 0 0)
(1.15862e-13 0 0)
(1.3086e-13 0 0)
(1.46847e-13 0 0)
(1.58079e-13 0 0)
(1.16808e-13 0 0)
(1.75274e-13 0 0)
(1.39939e-13 0 0)
(1.51214e-13 0 0)
(1.51165e-13 0 0)
(1.18732e-13 0 0)
(1.61943e-13 0 0)
(1.34839e-13 0 0)
(1.28149e-13 0 0)
(1.22268e-13 0 0)
(9.18077e-14 0 0)
(1.27635e-13 0 0)
(9.77982e-14 0 0)
(1.28892e-13 0 0)
(1.15316e-13 0 0)
(1.55614e-13 0 0)
(1.38632e-13 0 0)
(1.56899e-13 0 0)
(1.2399e-13 0 0)
(1.24433e-13 0 0)
(1.64059e-13 0 0)
(1.49793e-13 0 0)
(1.39338e-13 0 0)
(1.60517e-13 0 0)
(1.3444e-13 0 0)
(1.7839e-13 0 0)
(1.31265e-13 0 0)
(1.19869e-13 0 0)
(1.29275e-13 0 0)
(1.10703e-13 0 0)
(1.18557e-13 0 0)
(1.4089e-13 0 0)
(1.52958e-13 0 0)
(1.14042e-13 0 0)
(1.77176e-13 0 0)
(9.7301e-14 0 0)
(1.6108e-13 0 0)
(9.38355e-14 0 0)
(9.78965e-14 0 0)
(1.13047e-13 0 0)
(1.03526e-13 0 0)
(1.2693e-13 0 0)
(1.0263e-13 0 0)
(1.1308e-13 0 0)
(6.79665e-14 0 0)
(1.10227e-13 0 0)
(4.42618e-14 0 0)
(1.26471e-13 0 0)
(6.95899e-14 0 0)
(9.12498e-14 0 0)
(7.47547e-14 0 0)
(8.38986e-14 0 0)
(7.7318e-14 0 0)
(9.47426e-14 0 0)
(5.36134e-14 0 0)
(1.21147e-13 0 0)
(8.2412e-14 0 0)
(8.24287e-14 0 0)
(1.03837e-13 0 0)
(1.10517e-13 0 0)
(1.12665e-13 0 0)
(1.06658e-13 0 0)
(9.08182e-14 0 0)
(7.29019e-14 0 0)
(9.7328e-14 0 0)
(9.84702e-14 0 0)
(1.26291e-13 0 0)
(5.98444e-14 0 0)
(1.08904e-13 0 0)
(6.73706e-14 0 0)
(8.64074e-14 0 0)
(8.31281e-14 0 0)
(1.01782e-13 0 0)
(8.64623e-14 0 0)
(1.14501e-13 0 0)
(8.15269e-14 0 0)
(1.41523e-13 0 0)
(1.10539e-13 0 0)
(1.73738e-13 0 0)
(1.0445e-13 0 0)
(1.8561e-13 0 0)
(1.30751e-13 0 0)
(1.61473e-13 0 0)
(1.36326e-13 0 0)
(1.25646e-13 0 0)
(1.25848e-13 0 0)
(5.75929e-14 0 0)
(1.47656e-13 0 0)
(7.63674e-14 0 0)
(1.33199e-13 0 0)
(6.25883e-14 0 0)
(9.67047e-14 0 0)
(9.25565e-14 0 0)
(1.22197e-13 0 0)
(5.78495e-14 0 0)
(1.38047e-13 0 0)
(6.91471e-14 0 0)
(1.27717e-13 0 0)
(1.04319e-13 0 0)
(1.68721e-13 0 0)
(1.34397e-13 0 0)
(1.64966e-13 0 0)
(1.66333e-13 0 0)
(1.36446e-13 0 0)
(1.92475e-13 0 0)
(1.66688e-13 0 0)
(1.78865e-13 0 0)
(1.78193e-13 0 0)
(1.90786e-13 0 0)
(1.3936e-13 0 0)
(1.80101e-13 0 0)
(1.3303e-13 0 0)
(2.06784e-13 0 0)
(1.4394e-13 0 0)
(1.76488e-13 0 0)
(1.426e-13 0 0)
(1.71908e-13 0 0)
(1.32631e-13 0 0)
(1.69994e-13 0 0)
(8.14234e-14 0 0)
(2.04423e-13 0 0)
(1.23662e-13 0 0)
(1.61135e-13 0 0)
(1.43065e-13 0 0)
(1.75351e-13 0 0)
(1.58845e-13 0 0)
(1.40371e-13 0 0)
(1.70683e-13 0 0)
(1.33642e-13 0 0)
(1.54636e-13 0 0)
(1.1671e-13 0 0)
(1.65491e-13 0 0)
(1.42486e-13 0 0)
(1.37676e-13 0 0)
(1.70443e-13 0 0)
(1.7939e-13 0 0)
(1.42169e-13 0 0)
(1.59653e-13 0 0)
(1.11894e-13 0 0)
(1.35801e-13 0 0)
(7.00654e-14 0 0)
(1.37408e-13 0 0)
(7.6176e-14 0 0)
(1.0469e-13 0 0)
(1.05953e-13 0 0)
(1.06806e-13 0 0)
(1.06122e-13 0 0)
(9.14197e-14 0 0)
(1.09844e-13 0 0)
(8.06904e-14 0 0)
(7.13877e-14 0 0)
(7.07045e-14 0 0)
(5.25749e-14 0 0)
(1.04231e-13 0 0)
(8.67572e-14 0 0)
(7.32517e-14 0 0)
(9.96015e-14 0 0)
(9.10533e-14 0 0)
(4.8186e-14 0 0)
(8.8331e-14 0 0)
(-9.13812e-15 0 0)
(1.04444e-13 0 0)
(2.9629e-15 0 0)
(5.63893e-14 0 0)
(-3.31054e-14 0 0)
(2.30486e-14 0 0)
(-4.61686e-14 0 0)
(-1.17514e-14 0 0)
(-5.51816e-14 0 0)
(-8.67435e-15 0 0)
(-3.64453e-14 0 0)
(-3.53195e-14 0 0)
(-2.40982e-14 0 0)
(-5.68449e-15 0 0)
(-2.49791e-15 0 0)
(-2.20977e-14 0 0)
(-1.87147e-14 0 0)
(-3.6937e-14 0 0)
(-6.13287e-15 0 0)
(-6.89113e-14 0 0)
(1.92371e-15 0 0)
(-2.50875e-14 0 0)
(3.88042e-15 0 0)
(-5.81931e-14 0 0)
(2.04086e-14 0 0)
(-5.22685e-14 0 0)
(-2.68039e-14 0 0)
(-5.31869e-14 0 0)
(-2.77768e-14 0 0)
(-9.35016e-14 0 0)
(-6.2913e-15 0 0)
(-5.9467e-14 0 0)
(-5.71276e-14 0 0)
(-5.39795e-14 0 0)
(-6.53862e-14 0 0)
(-4.28566e-14 0 0)
(-3.61995e-14 0 0)
(-2.79189e-14 0 0)
(-5.62092e-14 0 0)
(-2.36612e-14 0 0)
(-5.99533e-14 0 0)
(-7.60302e-15 0 0)
(-4.64094e-14 0 0)
(-6.49708e-14 0 0)
(-4.84427e-14 0 0)
(-7.18794e-14 0 0)
(-3.90145e-14 0 0)
(-8.8648e-14 0 0)
(-3.41939e-14 0 0)
(-1.05838e-13 0 0)
(-1.15605e-14 0 0)
(-8.3953e-14 0 0)
(-2.49293e-14 0 0)
(-6.83541e-14 0 0)
(-2.81102e-14 0 0)
(-3.9998e-14 0 0)
(9.38444e-15 0 0)
(2.13656e-14 0 0)
(7.87991e-14 0 0)
(1.64168e-13 0 0)
(2.01876e-13 0 0)
(3.95264e-13 0 0)
(5.37061e-13 0 0)
(9.8438e-13 0 0)
(1.44351e-12 0 0)
(2.35312e-12 0 0)
(3.58337e-12 0 0)
(5.60192e-12 0 0)
(8.60649e-12 0 0)
(1.32788e-11 0 0)
(2.03008e-11 0 0)
(3.10293e-11 0 0)
(4.72213e-11 0 0)
(7.16617e-11 0 0)
(1.08352e-10 0 0)
(1.63288e-10 0 0)
(2.45181e-10 0 0)
(3.66874e-10 0 0)
(5.47048e-10 0 0)
(8.12798e-10 0 0)
(1.20343e-09 0 0)
(1.7754e-09 0 0)
(2.60986e-09 0 0)
(3.82268e-09 0 0)
(5.57878e-09 0 0)
(8.11197e-09 0 0)
(1.17521e-08 0 0)
(1.69632e-08 0 0)
(2.4394e-08 0 0)
(3.49496e-08 0 0)
(4.98852e-08 0 0)
(7.09358e-08 0 0)
(1.00488e-07 0 0)
(1.4181e-07 0 0)
(1.99361e-07 0 0)
(2.79191e-07 0 0)
(3.89479e-07 0 0)
(5.41226e-07 0 0)
(7.49163e-07 0 0)
(1.03293e-06 0 0)
(1.41856e-06 0 0)
(1.94047e-06 0 0)
(2.64383e-06 0 0)
(3.58776e-06 0 0)
(4.84914e-06 0 0)
(6.52757e-06 0 0)
(8.75135e-06 0 0)
(1.1685e-05 0 0)
(1.55382e-05 0 0)
(2.05772e-05 0 0)
(2.7138e-05 0 0)
(3.56424e-05 0 0)
(4.66173e-05 0 0)
(6.07171e-05 0 0)
(7.87502e-05 0 0)
(0.00010171 0 0)
(0.00013081 0 0)
(0.000167524 0 0)
(0.000213632 0 0)
(0.000271274 0 0)
(0.000343 0 0)
(0.000431839 0 0)
(0.000541366 0 0)
(0.000675768 0 0)
(0.000839928 0 0)
(0.0010395 0 0)
(0.00128099 0 0)
(0.00157184 0 0)
(0.0019205 0 0)
(0.00233653 0 0)
(0.00283064 0 0)
(0.00341478 0 0)
(0.00410217 0 0)
(0.00490737 0 0)
(0.0058463 0 0)
(0.00693626 0 0)
(0.00819591 0 0)
(0.00964526 0 0)
(0.0113056 0 0)
(0.0131996 0 0)
(0.015351 0 0)
(0.0177847 0 0)
(0.0205264 0 0)
(0.0236029 0 0)
(0.0270416 0 0)
(0.0308704 0 0)
(0.0351178 0 0)
(0.0398125 0 0)
(0.0449832 0 0)
(0.0506587 0 0)
(0.0568675 0 0)
(0.0636378 0 0)
(0.0709974 0 0)
(0.0789733 0 0)
(0.0875919 0 0)
(0.0968788 0 0)
(0.106859 0 0)
(0.117555 0 0)
(0.12899 0 0)
(0.141186 0 0)
(0.154164 0 0)
(0.167941 0 0)
(0.182536 0 0)
(0.197967 0 0)
(0.214249 0 0)
(0.231396 0 0)
(0.249421 0 0)
(0.268339 0 0)
(0.288159 0 0)
(0.308892 0 0)
(0.330548 0 0)
(0.353136 0 0)
(0.376662 0 0)
(0.401135 0 0)
(0.426561 0 0)
(0.452945 0 0)
(0.480293 0 0)
(0.508608 0 0)
(0.537896 0 0)
(0.568159 0 0)
(0.599402 0 0)
(0.631626 0 0)
(0.664835 0 0)
(0.69903 0 0)
(0.734215 0 0)
(0.77039 0 0)
(0.807557 0 0)
(0.845718 0 0)
(0.884875 0 0)
(0.925028 0 0)
(0.966179 0 0)
(1.00833 0 0)
(1.05148 0 0)
(1.09563 0 0)
(1.14079 0 0)
(1.18694 0 0)
(1.23411 0 0)
(1.28227 0 0)
(1.33145 0 0)
(1.38163 0 0)
(1.43282 0 0)
(1.48502 0 0)
(1.53823 0 0)
(1.59246 0 0)
(1.64769 0 0)
(1.70395 0 0)
(1.76122 0 0)
(1.8195 0 0)
(1.87881 0 0)
(1.93913 0 0)
(2.00048 0 0)
(2.06285 0 0)
(2.12625 0 0)
(2.19067 0 0)
(2.25612 0 0)
(2.32261 0 0)
(2.39012 0 0)
(2.45866 0 0)
(2.52825 0 0)
(2.59887 0 0)
(2.67052 0 0)
(2.74322 0 0)
(2.81696 0 0)
(2.89175 0 0)
(2.96759 0 0)
(3.04447 0 0)
(3.1224 0 0)
(3.20139 0 0)
(3.28144 0 0)
(3.36254 0 0)
(3.4447 0 0)
(3.52793 0 0)
(3.61222 0 0)
(3.69757 0 0)
(3.784 0 0)
(3.8715 0 0)
(3.96007 0 0)
(4.04972 0 0)
(4.14046 0 0)
(4.23227 0 0)
(4.32517 0 0)
(4.41915 0 0)
(4.51423 0 0)
(4.6104 0 0)
(4.70766 0 0)
(4.80603 0 0)
(4.90549 0 0)
(5.00606 0 0)
(5.10773 0 0)
(5.21052 0 0)
(5.31442 0 0)
(5.41943 0 0)
(5.52556 0 0)
(5.63281 0 0)
(5.74119 0 0)
(5.85069 0 0)
(5.96133 0 0)
(6.0731 0 0)
(6.186 0 0)
(6.30004 0 0)
(6.41523 0 0)
(6.53156 0 0)
(6.64905 0 0)
(6.76768 0 0)
(6.88747 0 0)
(7.00842 0 0)
(7.13054 0 0)
(7.25381 0 0)
(7.37826 0 0)
(7.50388 0 0)
(7.63068 0 0)
(7.75866 0 0)
(7.88782 0 0)
(8.01817 0 0)
(8.14972 0 0)
(8.28245 0 0)
(8.41639 0 0)
(8.55153 0 0)
(8.68787 0 0)
(8.82543 0 0)
(8.9642 0 0)
(9.10419 0 0)
(9.2454 0 0)
(9.38784 0 0)
(9.53152 0 0)
(9.67642 0 0)
(9.82257 0 0)
(9.96997 0 0)
(10.1186 0 0)
(10.2685 0 0)
(10.4197 0 0)
(10.5721 0 0)
(10.7258 0 0)
(10.8807 0 0)
(11.037 0 0)
(11.1945 0 0)
(11.3533 0 0)
(11.5134 0 0)
(11.6748 0 0)
(11.8375 0 0)
(12.0015 0 0)
(12.1668 0 0)
(12.3334 0 0)
(12.5014 0 0)
(12.6707 0 0)
(12.8413 0 0)
(13.0132 0 0)
(13.1865 0 0)
(13.3612 0 0)
(13.5372 0 0)
(13.7146 0 0)
(13.8933 0 0)
(14.0734 0 0)
(14.2549 0 0)
(14.4378 0 0)
(14.6221 0 0)
(14.8078 0 0)
(14.9949 0 0)
(15.1834 0 0)
(15.3733 0 0)
(15.5646 0 0)
(15.7574 0 0)
(15.9516 0 0)
(16.1473 0 0)
(16.3444 0 0)
(16.543 0 0)
(16.743 0 0)
(16.9445 0 0)
(17.1475 0 0)
(17.352 0 0)
(17.558 0 0)
(17.7654 0 0)
(17.9744 0 0)
(18.185 0 0)
(18.397 0 0)
(18.6106 0 0)
(18.8257 0 0)
(19.0424 0 0)
(19.2607 0 0)
(19.4805 0 0)
(19.7019 0 0)
(19.9249 0 0)
(20.1494 0 0)
(20.3756 0 0)
(20.6034 0 0)
(20.8329 0 0)
(21.0639 0 0)
(21.2967 0 0)
(21.531 0 0)
(21.7671 0 0)
(22.0048 0 0)
(22.2442 0 0)
(22.4852 0 0)
(22.7281 0 0)
(22.9725 0 0)
(23.219 0 0)
(23.4667 0 0)
(23.7168 0 0)
(23.9679 0 0)
(24.2217 0 0)
(24.4762 0 0)
(24.7337 0 0)
(24.9917 0 0)
(25.2531 0 0)
(25.5144 0 0)
(25.7798 0 0)
(26.0447 0 0)
(26.3139 0 0)
(26.5824 0 0)
(26.8556 0 0)
(27.1278 0 0)
(27.405 0 0)
(27.681 0 0)
(27.9622 0 0)
(28.2421 0 0)
(28.5273 0 0)
(28.8112 0 0)
(29.1004 0 0)
(29.3886 0 0)
(29.6816 0 0)
(29.9744 0 0)
(30.271 0 0)
(30.5689 0 0)
(30.8688 0 0)
(31.1721 0 0)
(31.475 0 0)
(31.7842 0 0)
(32.09 0 0)
(32.4052 0 0)
(32.7139 0 0)
(33.0354 0 0)
(33.347 0 0)
(33.6748 0 0)
(33.9895 0 0)
(34.3238 0 0)
(34.6415 0 0)
(34.9824 0 0)
(35.3033 0 0)
(35.651 0 0)
(35.975 0 0)
(36.3297 0 0)
(36.657 0 0)
(37.0187 0 0)
(37.3494 0 0)
(37.7185 0 0)
(38.0526 0 0)
(38.4291 0 0)
(38.7668 0 0)
(39.1509 0 0)
(39.4922 0 0)
(39.8843 0 0)
(40.2293 0 0)
(40.6295 0 0)
(40.9784 0 0)
(41.3869 0 0)
(41.7399 0 0)
(42.1568 0 0)
(42.5141 0 0)
(42.9396 0 0)
(43.3016 0 0)
(43.7358 0 0)
(44.1027 0 0)
(44.5459 0 0)
(44.9181 0 0)
(45.3702 0 0)
(45.7482 0 0)
(46.2095 0 0)
(46.5936 0 0)
(47.0643 0 0)
(47.4549 0 0)
(47.9351 0 0)
(48.3326 0 0)
(48.8225 0 0)
(49.2272 0 0)
(49.7267 0 0)
(50.1386 0 0)
(50.6471 0 0)
(51.0654 0 0)
(51.5815 0 0)
(52.0038 0 0)
(52.5233 0 0)
(52.9437 0 0)
(53.4619 0 0)
(53.8672 0 0)
(54.3707 0 0)
(54.7641 0 0)
(55.2616 0 0)
(55.6535 0 0)
(56.1548 0 0)
(56.552 0 0)
(57.0619 0 0)
(57.4655 0 0)
(57.9839 0 0)
(58.3928 0 0)
(58.9175 0 0)
(59.3305 0 0)
(59.86 0 0)
(60.2762 0 0)
(60.81 0 0)
(61.2294 0 0)
(61.7678 0 0)
(62.1905 0 0)
(62.7339 0 0)
(63.1601 0 0)
(63.7084 0 0)
(64.1382 0 0)
(64.6913 0 0)
(65.1245 0 0)
(65.6822 0 0)
(66.1187 0 0)
(66.681 0 0)
(67.1206 0 0)
(67.6872 0 0)
(68.1298 0 0)
(68.7008 0 0)
(69.1464 0 0)
(69.7217 0 0)
(70.17 0 0)
(70.7496 0 0)
(71.2006 0 0)
(71.7841 0 0)
(72.2376 0 0)
(72.8251 0 0)
(73.2808 0 0)
(73.872 0 0)
(74.3299 0 0)
(74.9247 0 0)
(75.3845 0 0)
(75.9829 0 0)
(76.4443 0 0)
(77.046 0 0)
(77.509 0 0)
(78.1137 0 0)
(78.5778 0 0)
(79.1853 0 0)
(79.65 0 0)
(80.26 0 0)
(80.725 0 0)
(81.3369 0 0)
(81.8018 0 0)
(82.4153 0 0)
(82.8796 0 0)
(83.4945 0 0)
(83.9576 0 0)
(84.5734 0 0)
(85.0347 0 0)
(85.6508 0 0)
(86.1094 0 0)
(86.725 0 0)
(87.1796 0 0)
(87.7934 0 0)
(88.2425 0 0)
(88.8529 0 0)
(89.2946 0 0)
(89.8997 0 0)
(90.3317 0 0)
(90.9295 0 0)
(91.3499 0 0)
(91.9383 0 0)
(92.3446 0 0)
(92.9242 0 0)
(93.3182 0 0)
(93.8863 0 0)
(94.2578 0 0)
(94.8066 0 0)
(95.1402 0 0)
(95.6671 0 0)
(95.9561 0 0)
(96.4588 0 0)
(96.6973 0 0)
(97.1738 0 0)
(97.3594 0 0)
(97.8073 0 0)
(97.9414 0 0)
(98.3633 0 0)
(98.4534 0 0)
(98.8611 0 0)
(98.9265 0 0)
(99.3496 0 0)
(99.4318 0 0)
(100.764 0 0)
)
;

boundaryField
{
    sideLeft
    {
        type            symmetryPlane;
    }
    sideRight
    {
        type            calculated;
        value           uniform (100.376 0 0);
    }
    topbottom
    {
        type            empty;
    }
    frontback
    {
        type            empty;
    }
}


// ************************************************************************* //
