/*--------------------------------*- C++ -*----------------------------------*\
| =========                 |                                                 |
| \\      /  F ield         | OpenFOAM: The Open Source CFD Toolbox           |
|  \\    /   O peration     | Version:  2.4.0                                 |
|   \\  /    A nd           | Web:      www.OpenFOAM.org                      |
|    \\/     M anipulation  |                                                 |
\*---------------------------------------------------------------------------*/
FoamFile
{
    version     2.0;
    format      ascii;
    class       volVectorField;
    location    "0.13";
    object      U.water;
}
// * * * * * * * * * * * * * * * * * * * * * * * * * * * * * * * * * * * * * //

dimensions      [0 1 -1 0 0 0 0];

internalField   nonuniform List<vector> 
1000
(
(5.68447e-14 0 0)
(7.81594e-14 0 0)
(-7.10507e-15 0 0)
(1.42104e-14 0 0)
(9.23712e-14 0 0)
(5.04485e-13 0 0)
(2.06058e-13 0 0)
(2.13163e-14 0 0)
(1.35003e-13 0 0)
(1.42108e-13 0 0)
(3.76588e-13 0 0)
(3.62377e-13 0 0)
(2.629e-13 0 0)
(-9.23698e-14 0 0)
(5.68428e-14 0 0)
(-7.10472e-15 0 0)
(1.7053e-13 0 0)
(1.49214e-13 0 0)
(5.68426e-14 0 0)
(-7.10533e-14 0 0)
(-7.10552e-14 0 0)
(-1.35002e-13 0 0)
(-2.20269e-13 0 0)
(-3.33955e-13 0 0)
(-2.62901e-13 0 0)
(-1.13687e-13 0 0)
(-4.83169e-13 0 0)
(-5.04486e-13 0 0)
(-5.25801e-13 0 0)
(-6.11068e-13 0 0)
(-4.05009e-13 0 0)
(-2.98428e-13 0 0)
(-2.84217e-13 0 0)
(-2.27373e-13 0 0)
(-9.23713e-14 0 0)
(-1.8474e-13 0 0)
(-1.63426e-13 0 0)
(-2.84216e-13 0 0)
(1.42099e-14 0 0)
(2.41585e-13 0 0)
(3.76587e-13 0 0)
(4.68959e-13 0 0)
(2.98428e-13 0 0)
(2.27374e-13 0 0)
(7.81594e-14 0 0)
(4.9738e-14 0 0)
(-1.20792e-13 0 0)
(-3.12639e-13 0 0)
(-4.12115e-13 0 0)
(-3.05534e-13 0 0)
(-2.98428e-13 0 0)
(-4.0501e-13 0 0)
(1.42111e-14 0 0)
(-1.98952e-13 0 0)
(-2.98428e-13 0 0)
(-2.4869e-13 0 0)
(-2.70006e-13 0 0)
(-3.55272e-13 0 0)
(-6.82121e-13 0 0)
(-9.09495e-13 0 0)
(-1.12976e-12 0 0)
(-1.10845e-12 0 0)
(-1.22924e-12 0 0)
(-1.02318e-12 0 0)
(-1.05871e-12 0 0)
(-1.15108e-12 0 0)
(-9.16601e-13 0 0)
(-9.02389e-13 0 0)
(-1.06581e-12 0 0)
(-1.02318e-12 0 0)
(-1.00186e-12 0 0)
(-1.20792e-12 0 0)
(-1.28608e-12 0 0)
(-1.30029e-12 0 0)
(-1.01608e-12 0 0)
(-9.02389e-13 0 0)
(-6.67911e-13 0 0)
(-4.33431e-13 0 0)
(-1.91846e-13 0 0)
(-2.55796e-13 0 0)
(-3.26849e-13 0 0)
(3.55269e-14 0 0)
(-1.06581e-13 0 0)
(3.83692e-13 0 0)
(4.8317e-13 0 0)
(5.68434e-13 0 0)
(5.61329e-13 0 0)
(8.45545e-13 0 0)
(1.11555e-12 0 0)
(1.10134e-12 0 0)
(9.52127e-13 0 0)
(6.82121e-13 0 0)
(6.11067e-13 0 0)
(5.18696e-13 0 0)
(3.90799e-13 0 0)
(2.77111e-13 0 0)
(2.3448e-13 0 0)
(4.76063e-13 0 0)
(5.68435e-13 0 0)
(5.32907e-13 0 0)
(2.70007e-13 0 0)
(2.06057e-13 0 0)
(1.21228e-19 0 0)
(-1.06582e-13 0 0)
(2.84217e-14 0 0)
(9.23709e-14 0 0)
(-2.77112e-13 0 0)
(-3.2685e-13 0 0)
(-2.629e-13 0 0)
(-3.83694e-13 0 0)
(-7.8159e-14 0 0)
(3.33955e-13 0 0)
(4.61853e-13 0 0)
(7.95808e-13 0 0)
(1.03029e-12 0 0)
(9.9476e-13 0 0)
(1.01608e-12 0 0)
(9.09495e-13 0 0)
(9.52127e-13 0 0)
(1.03029e-12 0 0)
(1.20792e-12 0 0)
(1.35003e-12 0 0)
(1.42108e-12 0 0)
(1.20792e-12 0 0)
(1.3145e-12 0 0)
(1.19371e-12 0 0)
(1.16529e-12 0 0)
(7.95808e-13 0 0)
(3.76587e-13 0 0)
(3.97905e-13 0 0)
(7.38963e-13 0 0)
(6.25279e-13 0 0)
(6.75015e-13 0 0)
(5.89751e-13 0 0)
(5.54223e-13 0 0)
(5.25802e-13 0 0)
(5.54223e-13 0 0)
(2.70006e-13 0 0)
(2.84215e-14 0 0)
(1.42109e-13 0 0)
(1.20792e-13 0 0)
(7.10538e-14 0 0)
(1.98953e-13 0 0)
(5.82644e-13 0 0)
(5.11592e-13 0 0)
(7.81597e-13 0 0)
(6.96332e-13 0 0)
(7.31859e-13 0 0)
(6.46594e-13 0 0)
(2.41585e-13 0 0)
(2.55795e-13 0 0)
(1.98952e-13 0 0)
(1.91847e-13 0 0)
(3.76588e-13 0 0)
(3.48166e-13 0 0)
(4.05009e-13 0 0)
(4.33432e-13 0 0)
(5.61328e-13 0 0)
(2.06058e-13 0 0)
(-2.84221e-14 0 0)
(4.26333e-14 0 0)
(3.55271e-13 0 0)
(2.84223e-14 0 0)
(8.52646e-14 0 0)
(3.2685e-13 0 0)
(5.68427e-14 0 0)
(9.94768e-14 0 0)
(3.12638e-13 0 0)
(2.4869e-13 0 0)
(3.33955e-13 0 0)
(5.68436e-14 0 0)
(6.39485e-14 0 0)
(5.68439e-14 0 0)
(2.13162e-13 0 0)
(7.10548e-14 0 0)
(2.13157e-14 0 0)
(1.42115e-14 0 0)
(-5.68441e-14 0 0)
(-3.12638e-13 0 0)
(-8.5265e-14 0 0)
(-2.84218e-14 0 0)
(-1.56319e-13 0 0)
(2.91322e-13 0 0)
(1.5632e-13 0 0)
(1.27897e-13 0 0)
(1.06582e-13 0 0)
(3.83692e-13 0 0)
(2.77113e-13 0 0)
(2.06056e-13 0 0)
(-7.10405e-15 0 0)
(-5.68447e-14 0 0)
(-9.23694e-14 0 0)
(-7.10636e-15 0 0)
(-7.81591e-14 0 0)
(1.42108e-13 0 0)
(1.13687e-13 0 0)
(3.19744e-13 0 0)
(3.83693e-13 0 0)
(3.83693e-13 0 0)
(2.8422e-14 0 0)
(1.35003e-13 0 0)
(1.63426e-13 0 0)
(4.68957e-13 0 0)
(5.04486e-13 0 0)
(3.83693e-13 0 0)
(1.27898e-13 0 0)
(-7.10546e-14 0 0)
(-7.10542e-14 0 0)
(4.97382e-14 0 0)
(2.70006e-13 0 0)
(1.27898e-13 0 0)
(-1.5632e-13 0 0)
(1.91847e-13 0 0)
(4.76063e-13 0 0)
(3.2685e-13 0 0)
(5.04485e-13 0 0)
(5.7554e-13 0 0)
(6.89226e-13 0 0)
(5.82645e-13 0 0)
(1.49214e-13 0 0)
(8.5265e-14 0 0)
(1.70531e-13 0 0)
(3.76587e-13 0 0)
(3.62377e-13 0 0)
(3.2685e-13 0 0)
(5.68434e-13 0 0)
(5.04485e-13 0 0)
(1.5632e-13 0 0)
(1.98952e-13 0 0)
(2.13163e-13 0 0)
(3.19744e-13 0 0)
(6.18172e-13 0 0)
(4.12115e-13 0 0)
(5.32906e-13 0 0)
(4.33432e-13 0 0)
(6.18171e-13 0 0)
(6.25278e-13 0 0)
(5.8975e-13 0 0)
(3.83694e-13 0 0)
(1.91846e-13 0 0)
(-4.97378e-14 0 0)
(-2.84222e-14 0 0)
(-6.39479e-14 0 0)
(6.3948e-14 0 0)
(4.26329e-14 0 0)
(-1.98952e-13 0 0)
(-3.97904e-13 0 0)
(-8.02913e-13 0 0)
(-1.00897e-12 0 0)
(-9.45022e-13 0 0)
(-1.01608e-12 0 0)
(-7.4607e-13 0 0)
(-4.61853e-13 0 0)
(-4.83168e-13 0 0)
(-3.83694e-13 0 0)
(-1.27897e-13 0 0)
(1.91846e-13 0 0)
(4.40537e-13 0 0)
(5.40012e-13 0 0)
(3.69483e-13 0 0)
(5.96855e-13 0 0)
(7.3186e-13 0 0)
(8.31335e-13 0 0)
(7.95808e-13 0 0)
(7.03438e-13 0 0)
(7.17648e-13 0 0)
(7.03439e-13 0 0)
(9.09494e-13 0 0)
(6.25279e-13 0 0)
(7.46069e-13 0 0)
(3.26851e-13 0 0)
(2.55795e-13 0 0)
(-3.55266e-14 0 0)
(1.42104e-14 0 0)
(1.35004e-13 0 0)
(2.13157e-14 0 0)
(-1.06581e-13 0 0)
(4.97371e-14 0 0)
(1.42116e-14 0 0)
(-5.54224e-13 0 0)
(-6.25277e-13 0 0)
(-5.18696e-13 0 0)
(-4.9738e-13 0 0)
(-5.18695e-13 0 0)
(-4.97381e-13 0 0)
(-4.61852e-13 0 0)
(-3.48166e-13 0 0)
(-3.33955e-13 0 0)
(-3.48166e-13 0 0)
(-3.12638e-13 0 0)
(-9.94762e-14 0 0)
(-1.42108e-13 0 0)
(-9.2371e-14 0 0)
(1.20793e-13 0 0)
(2.70005e-13 0 0)
(4.2633e-14 0 0)
(1.56319e-13 0 0)
(2.77112e-13 0 0)
(2.06057e-13 0 0)
(-2.13157e-14 0 0)
(1.63424e-13 0 0)
(2.13166e-14 0 0)
(-1.27898e-13 0 0)
(-1.5632e-13 0 0)
(-2.70006e-13 0 0)
(-4.76064e-13 0 0)
(-4.1922e-13 0 0)
(-2.06057e-13 0 0)
(2.70006e-13 0 0)
(2.06058e-13 0 0)
(1.84741e-13 0 0)
(3.48166e-13 0 0)
(5.47118e-13 0 0)
(9.0239e-13 0 0)
(1.09424e-12 0 0)
(1.27898e-12 0 0)
(1.39266e-12 0 0)
(1.3145e-12 0 0)
(1.08003e-12 0 0)
(9.09494e-13 0 0)
(9.80549e-13 0 0)
(8.2423e-13 0 0)
(8.88178e-13 0 0)
(9.73444e-13 0 0)
(7.6028e-13 0 0)
(5.82645e-13 0 0)
(4.1922e-13 0 0)
(4.54747e-13 0 0)
(5.54224e-13 0 0)
(4.26326e-13 0 0)
(2.4869e-13 0 0)
(2.62901e-13 0 0)
(2.84223e-14 0 0)
(2.84208e-14 0 0)
(-1.91846e-13 0 0)
(-1.70531e-13 0 0)
(-9.94755e-14 0 0)
(-7.10532e-15 0 0)
(4.26324e-14 0 0)
(-2.84215e-14 0 0)
(-3.41061e-13 0 0)
(-2.06057e-13 0 0)
(-1.27898e-13 0 0)
(-4.3343e-13 0 0)
(-1.70531e-13 0 0)
(-2.13162e-13 0 0)
(6.3948e-14 0 0)
(1.27898e-13 0 0)
(9.23703e-14 0 0)
(2.84218e-14 0 0)
(3.5527e-14 0 0)
(9.23707e-14 0 0)
(3.4106e-13 0 0)
(3.05534e-13 0 0)
(-3.55278e-14 0 0)
(-3.33955e-13 0 0)
(-2.70006e-13 0 0)
(-2.77112e-13 0 0)
(-2.91323e-13 0 0)
(-6.25278e-13 0 0)
(-6.96332e-13 0 0)
(-6.53699e-13 0 0)
(-6.53699e-13 0 0)
(-5.54223e-13 0 0)
(-3.76588e-13 0 0)
(-4.8317e-13 0 0)
(-3.12638e-13 0 0)
(-5.81598e-19 0 0)
(-1.56319e-13 0 0)
(6.39487e-14 0 0)
(5.68436e-14 0 0)
(1.84741e-13 0 0)
(3.05534e-13 0 0)
(5.04485e-13 0 0)
(6.39489e-13 0 0)
(5.61328e-13 0 0)
(4.68959e-13 0 0)
(3.76587e-13 0 0)
(7.81606e-14 0 0)
(1.70529e-13 0 0)
(-2.84212e-14 0 0)
(-4.97383e-14 0 0)
(-2.13162e-14 0 0)
(2.27374e-13 0 0)
(3.55267e-14 0 0)
(-1.13686e-13 0 0)
(1.42098e-14 0 0)
(-9.94752e-14 0 0)
(-1.84742e-13 0 0)
(-3.26849e-13 0 0)
(-4.76064e-13 0 0)
(-6.6791e-13 0 0)
(-5.11591e-13 0 0)
(-4.26325e-13 0 0)
(-1.70531e-13 0 0)
(-1.98951e-13 0 0)
(-1.27898e-13 0 0)
(-2.48689e-13 0 0)
(-2.13164e-13 0 0)
(-2.98428e-13 0 0)
(-2.98428e-13 0 0)
(-2.62901e-13 0 0)
(-2.70006e-13 0 0)
(-1.84742e-13 0 0)
(-1.77635e-13 0 0)
(9.94759e-14 0 0)
(2.34479e-13 0 0)
(6.18172e-13 0 0)
(5.11591e-13 0 0)
(4.05009e-13 0 0)
(3.97905e-13 0 0)
(3.76587e-13 0 0)
(3.62377e-13 0 0)
(5.04485e-13 0 0)
(3.55272e-13 0 0)
(4.47641e-13 0 0)
(5.68435e-13 0 0)
(9.09494e-13 0 0)
(1.01608e-12 0 0)
(1.22924e-12 0 0)
(1.06581e-12 0 0)
(9.80549e-13 0 0)
(1.01608e-12 0 0)
(1.00186e-12 0 0)
(9.59233e-13 0 0)
(7.38965e-13 0 0)
(8.45545e-13 0 0)
(9.80549e-13 0 0)
(1.02318e-12 0 0)
(1.03739e-12 0 0)
(1.10845e-12 0 0)
(1.07292e-12 0 0)
(1.15108e-12 0 0)
(1.19371e-12 0 0)
(1.03029e-12 0 0)
(7.74492e-13 0 0)
(7.38964e-13 0 0)
(5.40013e-13 0 0)
(1.91846e-13 0 0)
(-7.81589e-14 0 0)
(-1.63426e-13 0 0)
(-7.10536e-14 0 0)
(5.68433e-14 0 0)
(3.19744e-13 0 0)
(3.83693e-13 0 0)
(1.42109e-13 0 0)
(-9.23704e-14 0 0)
(3.55268e-14 0 0)
(2.84219e-14 0 0)
(1.98952e-13 0 0)
(5.40012e-13 0 0)
(5.68435e-13 0 0)
(7.46069e-13 0 0)
(5.25802e-13 0 0)
(5.96856e-13 0 0)
(7.74491e-13 0 0)
(7.38964e-13 0 0)
(4.33432e-13 0 0)
(1.91846e-13 0 0)
(2.06059e-13 0 0)
(2.98427e-13 0 0)
(7.10636e-15 0 0)
(7.81588e-14 0 0)
(1.35004e-13 0 0)
(1.70529e-13 0 0)
(7.10604e-15 0 0)
(4.40536e-13 0 0)
(2.62901e-13 0 0)
(1.20792e-13 0 0)
(-7.10527e-15 0 0)
(-1.63425e-13 0 0)
(-2.13163e-13 0 0)
(-7.81598e-14 0 0)
(6.39487e-14 0 0)
(1.77636e-13 0 0)
(2.70006e-13 0 0)
(3.55272e-13 0 0)
(4.54747e-13 0 0)
(4.8317e-13 0 0)
(7.46069e-13 0 0)
(7.67386e-13 0 0)
(7.95807e-13 0 0)
(5.96857e-13 0 0)
(5.75539e-13 0 0)
(3.12639e-13 0 0)
(3.76587e-13 0 0)
(2.27374e-13 0 0)
(4.12114e-13 0 0)
(3.55272e-13 0 0)
(2.48689e-13 0 0)
(-4.05009e-13 0 0)
(-4.83169e-13 0 0)
(-3.90799e-13 0 0)
(-4.76063e-13 0 0)
(-7.67386e-13 0 0)
(-1.0445e-12 0 0)
(-1.08713e-12 0 0)
(-9.45021e-13 0 0)
(-8.66863e-13 0 0)
(-1.0445e-12 0 0)
(-8.2423e-13 0 0)
(-9.02389e-13 0 0)
(-7.95808e-13 0 0)
(-6.39489e-13 0 0)
(-6.03961e-13 0 0)
(-4.9738e-13 0 0)
(-3.4106e-13 0 0)
(9.94752e-14 0 0)
(5.82646e-13 0 0)
(1.20082e-12 0 0)
(1.44951e-12 0 0)
(1.90425e-12 0 0)
(2.51532e-12 0 0)
(3.48166e-12 0 0)
(5.00933e-12 0 0)
(7.84439e-12 0 0)
(1.20934e-11 0 0)
(1.8666e-11 0 0)
(2.90896e-11 0 0)
(4.49276e-11 0 0)
(7.02869e-11 0 0)
(1.09424e-10 0 0)
(1.70665e-10 0 0)
(2.64841e-10 0 0)
(4.10097e-10 0 0)
(6.32767e-10 0 0)
(9.72648e-10 0 0)
(1.489e-09 0 0)
(2.27207e-09 0 0)
(3.45526e-09 0 0)
(5.23575e-09 0 0)
(7.90574e-09 0 0)
(1.18951e-08 0 0)
(1.78339e-08 0 0)
(2.66417e-08 0 0)
(3.96562e-08 0 0)
(5.88145e-08 0 0)
(8.69108e-08 0 0)
(1.27959e-07 0 0)
(1.87703e-07 0 0)
(2.7432e-07 0 0)
(3.99415e-07 0 0)
(5.79377e-07 0 0)
(8.37257e-07 0 0)
(1.20534e-06 0 0)
(1.72861e-06 0 0)
(2.46956e-06 0 0)
(3.51448e-06 0 0)
(4.98212e-06 0 0)
(7.03506e-06 0 0)
(9.89491e-06 0 0)
(1.38623e-05 0 0)
(1.93433e-05 0 0)
(2.68833e-05 0 0)
(3.7212e-05 0 0)
(5.13004e-05 0 0)
(7.04346e-05 0 0)
(9.6309e-05 0 0)
(0.000131145 0 0)
(0.000177841 0 0)
(0.000240158 0 0)
(0.000322947 0 0)
(0.000432441 0 0)
(0.000576598 0 0)
(0.000765522 0 0)
(0.00101197 0 0)
(0.00133198 0 0)
(0.00174555 0 0)
(0.00227751 0 0)
(0.0029585 0 0)
(0.00382609 0 0)
(0.00492608 0 0)
(0.00631393 0 0)
(0.00805635 0 0)
(0.0102331 0 0)
(0.012939 0 0)
(0.0162857 0 0)
(0.020404 0 0)
(0.0254461 0 0)
(0.0315876 0 0)
(0.0390296 0 0)
(0.0480009 0 0)
(0.0587594 0 0)
(0.0715937 0 0)
(0.0868241 0 0)
(0.104803 0 0)
(0.125914 0 0)
(0.150572 0 0)
(0.179223 0 0)
(0.212336 0 0)
(0.250407 0 0)
(0.293949 0 0)
(0.343489 0 0)
(0.399563 0 0)
(0.462707 0 0)
(0.533455 0 0)
(0.612326 0 0)
(0.699817 0 0)
(0.796403 0 0)
(0.902519 0 0)
(1.01856 0 0)
(1.14488 0 0)
(1.28177 0 0)
(1.42947 0 0)
(1.58816 0 0)
(1.75796 0 0)
(1.93892 0 0)
(2.13103 0 0)
(2.33423 0 0)
(2.54838 0 0)
(2.7733 0 0)
(3.00876 0 0)
(3.25446 0 0)
(3.51007 0 0)
(3.77524 0 0)
(4.04957 0 0)
(4.33263 0 0)
(4.62397 0 0)
(4.92315 0 0)
(5.22969 0 0)
(5.54312 0 0)
(5.86296 0 0)
(6.18876 0 0)
(6.52004 0 0)
(6.85637 0 0)
(7.1973 0 0)
(7.54241 0 0)
(7.89132 0 0)
(8.24363 0 0)
(8.59898 0 0)
(8.95705 0 0)
(9.31752 0 0)
(9.68009 0 0)
(10.0445 0 0)
(10.4105 0 0)
(10.7779 0 0)
(11.1464 0 0)
(11.5159 0 0)
(11.8862 0 0)
(12.2572 0 0)
(12.6287 0 0)
(13.0006 0 0)
(13.3728 0 0)
(13.7453 0 0)
(14.1179 0 0)
(14.4906 0 0)
(14.8633 0 0)
(15.2361 0 0)
(15.6087 0 0)
(15.9814 0 0)
(16.3539 0 0)
(16.7263 0 0)
(17.0985 0 0)
(17.4707 0 0)
(17.8426 0 0)
(18.2145 0 0)
(18.5862 0 0)
(18.9577 0 0)
(19.3291 0 0)
(19.7004 0 0)
(20.0715 0 0)
(20.4426 0 0)
(20.8135 0 0)
(21.1844 0 0)
(21.5551 0 0)
(21.9258 0 0)
(22.2964 0 0)
(22.6669 0 0)
(23.0375 0 0)
(23.408 0 0)
(23.7784 0 0)
(24.1489 0 0)
(24.5194 0 0)
(24.8899 0 0)
(25.2605 0 0)
(25.631 0 0)
(26.0017 0 0)
(26.3724 0 0)
(26.7432 0 0)
(27.114 0 0)
(27.485 0 0)
(27.8561 0 0)
(28.2273 0 0)
(28.5986 0 0)
(28.97 0 0)
(29.3416 0 0)
(29.7134 0 0)
(30.0853 0 0)
(30.4574 0 0)
(30.8297 0 0)
(31.2022 0 0)
(31.5748 0 0)
(31.9477 0 0)
(32.3207 0 0)
(32.694 0 0)
(33.0675 0 0)
(33.4412 0 0)
(33.8152 0 0)
(34.1894 0 0)
(34.5638 0 0)
(34.9385 0 0)
(35.3134 0 0)
(35.6886 0 0)
(36.064 0 0)
(36.4397 0 0)
(36.8157 0 0)
(37.1919 0 0)
(37.5684 0 0)
(37.9452 0 0)
(38.3222 0 0)
(38.6996 0 0)
(39.0772 0 0)
(39.4551 0 0)
(39.8333 0 0)
(40.2118 0 0)
(40.5906 0 0)
(40.9698 0 0)
(41.3492 0 0)
(41.729 0 0)
(42.109 0 0)
(42.4894 0 0)
(42.8702 0 0)
(43.2513 0 0)
(43.6327 0 0)
(44.0145 0 0)
(44.3966 0 0)
(44.7791 0 0)
(45.162 0 0)
(45.5453 0 0)
(45.9289 0 0)
(46.313 0 0)
(46.6974 0 0)
(47.0823 0 0)
(47.4676 0 0)
(47.8533 0 0)
(48.2395 0 0)
(48.6261 0 0)
(49.0131 0 0)
(49.4006 0 0)
(49.7886 0 0)
(50.1771 0 0)
(50.5661 0 0)
(50.9555 0 0)
(51.3455 0 0)
(51.736 0 0)
(52.127 0 0)
(52.5186 0 0)
(52.9107 0 0)
(53.3033 0 0)
(53.6965 0 0)
(54.0903 0 0)
(54.4847 0 0)
(54.8796 0 0)
(55.2751 0 0)
(55.6713 0 0)
(56.068 0 0)
(56.4654 0 0)
(56.8634 0 0)
(57.2621 0 0)
(57.6613 0 0)
(58.0613 0 0)
(58.4619 0 0)
(58.8632 0 0)
(59.2651 0 0)
(59.6678 0 0)
(60.0711 0 0)
(60.4752 0 0)
(60.88 0 0)
(61.2855 0 0)
(61.6917 0 0)
(62.0987 0 0)
(62.5065 0 0)
(62.915 0 0)
(63.3243 0 0)
(63.7344 0 0)
(64.1453 0 0)
(64.557 0 0)
(64.9695 0 0)
(65.3829 0 0)
(65.7971 0 0)
(66.2122 0 0)
(66.6282 0 0)
(67.045 0 0)
(67.4628 0 0)
(67.8814 0 0)
(68.301 0 0)
(68.7215 0 0)
(69.143 0 0)
(69.5655 0 0)
(69.9889 0 0)
(70.4134 0 0)
(70.8388 0 0)
(71.2653 0 0)
(71.6929 0 0)
(72.1215 0 0)
(72.5511 0 0)
(72.9819 0 0)
(73.4138 0 0)
(73.8468 0 0)
(74.281 0 0)
(74.7164 0 0)
(75.1528 0 0)
(75.5907 0 0)
(76.0293 0 0)
(76.4699 0 0)
(76.9107 0 0)
(77.3544 0 0)
(77.797 0 0)
(78.2443 0 0)
(78.6883 0 0)
(79.1399 0 0)
(79.5845 0 0)
(80.0416 0 0)
(80.4859 0 0)
(80.9494 0 0)
(81.3927 0 0)
(81.8633 0 0)
(82.3055 0 0)
(82.7829 0 0)
(83.225 0 0)
(83.7079 0 0)
(84.1521 0 0)
(84.6389 0 0)
(85.0866 0 0)
(85.5758 0 0)
(86.0287 0 0)
(86.5198 0 0)
(86.9779 0 0)
(87.4707 0 0)
(87.9348 0 0)
(88.4286 0 0)
(88.9005 0 0)
(89.3927 0 0)
(89.8765 0 0)
(90.3622 0 0)
(90.8643 0 0)
(91.3367 0 0)
(91.865 0 0)
(92.3159 0 0)
(92.8792 0 0)
(93.3004 0 0)
(93.906 0 0)
(94.2929 0 0)
(94.9418 0 0)
(95.2986 0 0)
(95.9803 0 0)
(96.3249 0 0)
(97.0188 0 0)
(97.3691 0 0)
(98.0691 0 0)
(98.4231 0 0)
(99.1323 0 0)
(99.49 0 0)
(100.207 0 0)
(100.569 0 0)
(101.295 0 0)
(101.662 0 0)
(102.397 0 0)
(102.768 0 0)
(103.513 0 0)
(103.89 0 0)
(104.645 0 0)
(105.027 0 0)
(105.792 0 0)
(106.18 0 0)
(106.958 0 0)
(107.352 0 0)
(108.141 0 0)
(108.541 0 0)
(109.344 0 0)
(109.751 0 0)
(110.567 0 0)
(110.982 0 0)
(111.81 0 0)
(112.238 0 0)
(113.076 0 0)
(113.519 0 0)
(114.367 0 0)
(114.826 0 0)
(115.684 0 0)
(116.162 0 0)
(117.027 0 0)
(117.531 0 0)
(118.402 0 0)
(118.934 0 0)
(119.809 0 0)
(120.374 0 0)
(121.252 0 0)
(121.853 0 0)
(122.737 0 0)
(123.37 0 0)
(124.264 0 0)
(124.931 0 0)
(125.832 0 0)
(126.532 0 0)
(127.438 0 0)
(128.167 0 0)
(129.07 0 0)
(129.816 0 0)
(130.701 0 0)
(131.438 0 0)
(132.277 0 0)
(132.95 0 0)
(133.689 0 0)
(134.293 0 0)
(134.955 0 0)
(135.521 0 0)
(136.152 0 0)
(136.716 0 0)
(137.35 0 0)
(137.929 0 0)
(138.578 0 0)
(139.173 0 0)
(139.834 0 0)
(140.435 0 0)
(141.098 0 0)
(141.698 0 0)
(142.356 0 0)
(142.95 0 0)
(143.598 0 0)
(144.191 0 0)
(144.829 0 0)
(145.421 0 0)
(146.054 0 0)
(146.646 0 0)
(147.274 0 0)
(147.864 0 0)
(148.487 0 0)
(149.074 0 0)
(149.692 0 0)
(150.272 0 0)
(150.884 0 0)
(151.46 0 0)
(152.066 0 0)
(152.638 0 0)
(153.236 0 0)
(153.803 0 0)
(154.393 0 0)
(154.953 0 0)
(155.533 0 0)
(156.084 0 0)
(156.653 0 0)
(157.197 0 0)
(157.758 0 0)
(158.295 0 0)
(158.848 0 0)
(159.378 0 0)
(159.922 0 0)
(160.444 0 0)
(160.977 0 0)
(161.486 0 0)
(162.004 0 0)
(162.5 0 0)
(162.997 0 0)
(163.482 0 0)
(163.954 0 0)
(164.429 0 0)
(164.881 0 0)
(165.344 0 0)
(165.783 0 0)
(166.225 0 0)
(166.656 0 0)
(167.072 0 0)
(167.495 0 0)
(167.881 0 0)
(168.283 0 0)
(168.635 0 0)
(169.001 0 0)
(169.316 0 0)
(169.634 0 0)
(169.904 0 0)
(170.161 0 0)
(170.373 0 0)
(170.561 0 0)
(170.706 0 0)
(170.821 0 0)
(170.895 0 0)
(170.932 0 0)
(170.934 0 0)
(170.942 0 0)
(170.918 0 0)
(170.829 0 0)
(170.603 0 0)
(170.352 0 0)
(169.815 0 0)
(169.406 0 0)
(168.55 0 0)
(167.97 0 0)
(166.769 0 0)
(166.004 0 0)
(164.431 0 0)
(163.475 0 0)
(161.518 0 0)
(160.392 0 0)
(158.101 0 0)
(156.891 0 0)
(154.461 0 0)
(153.379 0 0)
(151.09 0 0)
(151.595 0 0)
)
;

boundaryField
{
    sideLeft
    {
        type            symmetryPlane;
    }
    sideRight
    {
        type            zeroGradient;
    }
    topbottom
    {
        type            empty;
    }
    frontback
    {
        type            empty;
    }
}


// ************************************************************************* //
