/*--------------------------------*- C++ -*----------------------------------*\
| =========                 |                                                 |
| \\      /  F ield         | OpenFOAM: The Open Source CFD Toolbox           |
|  \\    /   O peration     | Version:  2.4.0                                 |
|   \\  /    A nd           | Web:      www.OpenFOAM.org                      |
|    \\/     M anipulation  |                                                 |
\*---------------------------------------------------------------------------*/
FoamFile
{
    version     2.0;
    format      ascii;
    class       volVectorField;
    location    "0.13";
    object      U.waterMean;
}
// * * * * * * * * * * * * * * * * * * * * * * * * * * * * * * * * * * * * * //

dimensions      [0 1 -1 0 0 0 0];

internalField   nonuniform List<vector> 
1000
(
(-6.6364e-14 0 0)
(-3.21058e-14 0 0)
(-5.96362e-14 0 0)
(-2.88865e-14 0 0)
(-7.40819e-14 0 0)
(-1.70917e-14 0 0)
(-5.75865e-14 0 0)
(-4.84646e-14 0 0)
(-5.11317e-14 0 0)
(-3.45434e-14 0 0)
(-4.96506e-14 0 0)
(-7.47926e-14 0 0)
(-3.8785e-14 0 0)
(-8.48876e-14 0 0)
(-2.0945e-14 0 0)
(-6.12703e-14 0 0)
(7.03957e-15 0 0)
(-2.99738e-14 0 0)
(2.26987e-14 0 0)
(-4.88193e-14 0 0)
(3.00718e-14 0 0)
(-4.47365e-14 0 0)
(3.36666e-15 0 0)
(-3.67131e-14 0 0)
(-4.41902e-14 0 0)
(-3.28162e-14 0 0)
(-4.1594e-14 0 0)
(-2.0043e-14 0 0)
(-7.68639e-14 0 0)
(-9.46034e-16 0 0)
(-5.751e-14 0 0)
(-4.53927e-14 0 0)
(-2.62028e-14 0 0)
(-4.49116e-14 0 0)
(-2.29966e-16 0 0)
(-8.39581e-14 0 0)
(4.1249e-14 0 0)
(-6.00185e-14 0 0)
(1.77467e-14 0 0)
(-5.34105e-14 0 0)
(3.08224e-15 0 0)
(-5.13063e-14 0 0)
(-2.14203e-14 0 0)
(-4.47968e-14 0 0)
(-1.68893e-14 0 0)
(-3.4434e-14 0 0)
(-4.01402e-14 0 0)
(-3.27615e-14 0 0)
(-4.39388e-14 0 0)
(-3.70358e-14 0 0)
(-5.61107e-14 0 0)
(-2.28142e-14 0 0)
(-3.63686e-14 0 0)
(-4.72807e-15 0 0)
(-1.9977e-14 0 0)
(7.84315e-15 0 0)
(-1.42491e-14 0 0)
(-2.72744e-15 0 0)
(-3.93639e-14 0 0)
(-3.77701e-15 0 0)
(-4.80542e-14 0 0)
(3.76038e-14 0 0)
(-1.02426e-14 0 0)
(-1.87801e-14 0 0)
(1.52001e-14 0 0)
(1.34467e-15 0 0)
(3.60244e-14 0 0)
(1.86271e-14 0 0)
(7.06731e-15 0 0)
(1.56426e-14 0 0)
(-1.69489e-14 0 0)
(-2.61284e-15 0 0)
(-3.53519e-14 0 0)
(1.80893e-15 0 0)
(-1.4987e-14 0 0)
(-3.65435e-14 0 0)
(-5.10533e-15 0 0)
(-4.05936e-14 0 0)
(-3.46198e-14 0 0)
(-1.7862e-14 0 0)
(-3.1089e-14 0 0)
(-8.90973e-16 0 0)
(-1.32597e-14 0 0)
(3.01159e-14 0 0)
(-3.12035e-14 0 0)
(6.05579e-15 0 0)
(-2.91484e-14 0 0)
(4.47613e-15 0 0)
(-2.03051e-14 0 0)
(-2.58417e-14 0 0)
(7.2911e-15 0 0)
(-8.08378e-15 0 0)
(-1.1128e-14 0 0)
(7.73387e-15 0 0)
(-2.29504e-14 0 0)
(1.98346e-14 0 0)
(-5.54983e-14 0 0)
(3.09901e-14 0 0)
(-4.67425e-14 0 0)
(-2.03271e-14 0 0)
(-4.60977e-14 0 0)
(-1.57687e-14 0 0)
(-3.93695e-14 0 0)
(-3.24227e-14 0 0)
(-4.57207e-14 0 0)
(-5.94941e-14 0 0)
(-2.35466e-14 0 0)
(-4.3201e-14 0 0)
(-8.06026e-14 0 0)
(-4.38024e-14 0 0)
(-9.59831e-14 0 0)
(-4.82516e-14 0 0)
(-8.41336e-14 0 0)
(-7.14043e-14 0 0)
(-8.91292e-14 0 0)
(-7.435e-14 0 0)
(-5.01479e-14 0 0)
(-3.07338e-14 0 0)
(-2.19832e-14 0 0)
(-6.18662e-14 0 0)
(-7.49911e-15 0 0)
(-4.06102e-14 0 0)
(6.46576e-15 0 0)
(-4.0938e-14 0 0)
(-6.33492e-15 0 0)
(-5.89311e-14 0 0)
(-1.87695e-14 0 0)
(-6.08823e-14 0 0)
(-1.14456e-14 0 0)
(-9.5316e-14 0 0)
(-2.30495e-14 0 0)
(-1.12216e-13 0 0)
(-6.45666e-14 0 0)
(-9.5464e-14 0 0)
(-5.11265e-14 0 0)
(-7.86897e-14 0 0)
(-6.71409e-14 0 0)
(-6.02103e-14 0 0)
(-3.82656e-14 0 0)
(-4.65623e-14 0 0)
(-6.35334e-14 0 0)
(-4.8093e-14 0 0)
(-9.95467e-14 0 0)
(-6.00084e-14 0 0)
(-1.1872e-13 0 0)
(-6.20853e-14 0 0)
(-8.89107e-14 0 0)
(-8.88889e-14 0 0)
(-7.42791e-14 0 0)
(-9.20207e-14 0 0)
(-9.88201e-14 0 0)
(-1.1478e-13 0 0)
(-1.15573e-13 0 0)
(-1.08718e-13 0 0)
(-9.44804e-14 0 0)
(-8.28329e-14 0 0)
(-1.16649e-13 0 0)
(-9.09605e-14 0 0)
(-1.21782e-13 0 0)
(-1.01247e-13 0 0)
(-1.38528e-13 0 0)
(-6.48292e-14 0 0)
(-1.11724e-13 0 0)
(-6.29325e-14 0 0)
(-9.5043e-14 0 0)
(-4.57702e-14 0 0)
(-1.12156e-13 0 0)
(-5.02685e-14 0 0)
(-1.10298e-13 0 0)
(-9.31248e-14 0 0)
(-1.07811e-13 0 0)
(-9.06217e-14 0 0)
(-1.2493e-13 0 0)
(-8.84409e-14 0 0)
(-1.40769e-13 0 0)
(-1.05139e-13 0 0)
(-1.60571e-13 0 0)
(-1.18508e-13 0 0)
(-1.76941e-13 0 0)
(-1.77586e-13 0 0)
(-1.71104e-13 0 0)
(-1.73077e-13 0 0)
(-1.48613e-13 0 0)
(-2.02379e-13 0 0)
(-1.34894e-13 0 0)
(-1.95984e-13 0 0)
(-1.23952e-13 0 0)
(-2.28007e-13 0 0)
(-9.0092e-14 0 0)
(-1.94661e-13 0 0)
(-8.61128e-14 0 0)
(-1.84276e-13 0 0)
(-1.01783e-13 0 0)
(-1.64944e-13 0 0)
(-1.27433e-13 0 0)
(-1.60566e-13 0 0)
(-1.37993e-13 0 0)
(-1.4711e-13 0 0)
(-1.25001e-13 0 0)
(-1.53248e-13 0 0)
(-1.18617e-13 0 0)
(-1.79636e-13 0 0)
(-9.51366e-14 0 0)
(-1.48766e-13 0 0)
(-1.26449e-13 0 0)
(-1.22569e-13 0 0)
(-8.21772e-14 0 0)
(-9.82407e-14 0 0)
(-1.06412e-13 0 0)
(-8.38386e-14 0 0)
(-7.62467e-14 0 0)
(-5.66632e-14 0 0)
(-8.13679e-14 0 0)
(-1.97752e-14 0 0)
(-5.31156e-14 0 0)
(-9.14439e-15 0 0)
(-4.03587e-14 0 0)
(-2.71154e-14 0 0)
(-1.89386e-14 0 0)
(-2.74389e-15 0 0)
(1.26252e-15 0 0)
(-1.90916e-14 0 0)
(-5.60246e-15 0 0)
(-2.33879e-14 0 0)
(-3.3357e-14 0 0)
(-1.25713e-14 0 0)
(-3.03907e-15 0 0)
(-3.60843e-14 0 0)
(-4.2663e-16 0 0)
(-3.48274e-14 0 0)
(-5.40286e-14 0 0)
(-4.91368e-14 0 0)
(-8.45216e-14 0 0)
(-2.59897e-14 0 0)
(-7.84709e-14 0 0)
(-2.29595e-15 0 0)
(-6.72006e-14 0 0)
(-1.42931e-14 0 0)
(-8.51119e-14 0 0)
(-5.69035e-14 0 0)
(-5.94014e-14 0 0)
(-3.02857e-14 0 0)
(-8.39091e-14 0 0)
(6.00087e-15 0 0)
(-3.68387e-14 0 0)
(-2.02507e-14 0 0)
(-2.15238e-14 0 0)
(-3.39979e-15 0 0)
(-1.08329e-14 0 0)
(4.49269e-15 0 0)
(-3.32851e-15 0 0)
(1.62822e-14 0 0)
(1.41452e-14 0 0)
(-2.77983e-14 0 0)
(2.49069e-14 0 0)
(-2.54207e-14 0 0)
(2.83832e-14 0 0)
(-1.81405e-14 0 0)
(3.24168e-14 0 0)
(-1.92334e-14 0 0)
(5.358e-14 0 0)
(6.46629e-15 0 0)
(3.01814e-14 0 0)
(1.32106e-14 0 0)
(-6.39474e-15 0 0)
(2.40762e-14 0 0)
(-4.88247e-14 0 0)
(5.70889e-14 0 0)
(-1.51233e-14 0 0)
(8.47073e-14 0 0)
(1.05929e-14 0 0)
(7.80556e-14 0 0)
(1.68838e-14 0 0)
(5.33562e-14 0 0)
(1.99937e-14 0 0)
(6.59272e-14 0 0)
(1.25333e-14 0 0)
(8.95224e-14 0 0)
(3.36309e-14 0 0)
(9.2824e-14 0 0)
(8.31227e-14 0 0)
(9.98968e-14 0 0)
(1.07111e-13 0 0)
(3.40028e-14 0 0)
(1.29794e-13 0 0)
(7.86682e-14 0 0)
(9.66446e-14 0 0)
(1.07035e-13 0 0)
(1.19366e-13 0 0)
(8.97089e-14 0 0)
(1.20754e-13 0 0)
(1.07866e-13 0 0)
(1.31106e-13 0 0)
(7.81272e-14 0 0)
(1.61703e-13 0 0)
(1.17152e-13 0 0)
(1.32888e-13 0 0)
(1.46366e-13 0 0)
(1.54997e-13 0 0)
(1.15409e-13 0 0)
(1.7657e-13 0 0)
(1.41223e-13 0 0)
(1.51641e-13 0 0)
(1.51176e-13 0 0)
(1.18628e-13 0 0)
(1.62244e-13 0 0)
(1.34123e-13 0 0)
(1.28111e-13 0 0)
(1.21486e-13 0 0)
(9.03429e-14 0 0)
(1.28586e-13 0 0)
(9.9662e-14 0 0)
(1.2875e-13 0 0)
(1.14731e-13 0 0)
(1.55385e-13 0 0)
(1.39042e-13 0 0)
(1.57429e-13 0 0)
(1.24121e-13 0 0)
(1.23886e-13 0 0)
(1.62386e-13 0 0)
(1.504e-13 0 0)
(1.40054e-13 0 0)
(1.61277e-13 0 0)
(1.35577e-13 0 0)
(1.77799e-13 0 0)
(1.31062e-13 0 0)
(1.19956e-13 0 0)
(1.28411e-13 0 0)
(1.10058e-13 0 0)
(1.19158e-13 0 0)
(1.40901e-13 0 0)
(1.51531e-13 0 0)
(1.1536e-13 0 0)
(1.78827e-13 0 0)
(9.64483e-14 0 0)
(1.60358e-13 0 0)
(9.44258e-14 0 0)
(9.8208e-14 0 0)
(1.12473e-13 0 0)
(1.02734e-13 0 0)
(1.26876e-13 0 0)
(1.03072e-13 0 0)
(1.12047e-13 0 0)
(6.89831e-14 0 0)
(1.11489e-13 0 0)
(4.43384e-14 0 0)
(1.2681e-13 0 0)
(6.99014e-14 0 0)
(9.24085e-14 0 0)
(7.41535e-14 0 0)
(8.14063e-14 0 0)
(7.69682e-14 0 0)
(9.45841e-14 0 0)
(5.41491e-14 0 0)
(1.23011e-13 0 0)
(8.15812e-14 0 0)
(8.19422e-14 0 0)
(1.04067e-13 0 0)
(1.10976e-13 0 0)
(1.1443e-13 0 0)
(1.0709e-13 0 0)
(9.01405e-14 0 0)
(7.21094e-14 0 0)
(9.7809e-14 0 0)
(9.84866e-14 0 0)
(1.25427e-13 0 0)
(5.98062e-14 0 0)
(1.08429e-13 0 0)
(6.91907e-14 0 0)
(8.82439e-14 0 0)
(8.17453e-14 0 0)
(1.00733e-13 0 0)
(8.72549e-14 0 0)
(1.13845e-13 0 0)
(8.15378e-14 0 0)
(1.42097e-13 0 0)
(1.09396e-13 0 0)
(1.72273e-13 0 0)
(1.03007e-13 0 0)
(1.86178e-13 0 0)
(1.31664e-13 0 0)
(1.61987e-13 0 0)
(1.36031e-13 0 0)
(1.24771e-13 0 0)
(1.25329e-13 0 0)
(5.85111e-14 0 0)
(1.48377e-13 0 0)
(7.49682e-14 0 0)
(1.33248e-13 0 0)
(6.25609e-14 0 0)
(9.63112e-14 0 0)
(9.3103e-14 0 0)
(1.21874e-13 0 0)
(5.75708e-14 0 0)
(1.39561e-13 0 0)
(7.00161e-14 0 0)
(1.27007e-13 0 0)
(1.04018e-13 0 0)
(1.6912e-13 0 0)
(1.34741e-13 0 0)
(1.64294e-13 0 0)
(1.67169e-13 0 0)
(1.37195e-13 0 0)
(1.91289e-13 0 0)
(1.65387e-13 0 0)
(1.78035e-13 0 0)
(1.7886e-13 0 0)
(1.90633e-13 0 0)
(1.38928e-13 0 0)
(1.81636e-13 0 0)
(1.34757e-13 0 0)
(2.06412e-13 0 0)
(1.42196e-13 0 0)
(1.7599e-13 0 0)
(1.42737e-13 0 0)
(1.72345e-13 0 0)
(1.32713e-13 0 0)
(1.69901e-13 0 0)
(8.02319e-14 0 0)
(2.04548e-13 0 0)
(1.25663e-13 0 0)
(1.61424e-13 0 0)
(1.43388e-13 0 0)
(1.75422e-13 0 0)
(1.57336e-13 0 0)
(1.4025e-13 0 0)
(1.72044e-13 0 0)
(1.33615e-13 0 0)
(1.53608e-13 0 0)
(1.16513e-13 0 0)
(1.65256e-13 0 0)
(1.42076e-13 0 0)
(1.39452e-13 0 0)
(1.71219e-13 0 0)
(1.78193e-13 0 0)
(1.42098e-13 0 0)
(1.59407e-13 0 0)
(1.11064e-13 0 0)
(1.35839e-13 0 0)
(6.99015e-14 0 0)
(1.38255e-13 0 0)
(7.8007e-14 0 0)
(1.04226e-13 0 0)
(1.04892e-13 0 0)
(1.07352e-13 0 0)
(1.06341e-13 0 0)
(9.10863e-14 0 0)
(1.09347e-13 0 0)
(8.03461e-14 0 0)
(7.26284e-14 0 0)
(7.23223e-14 0 0)
(5.15309e-14 0 0)
(1.02504e-13 0 0)
(8.73038e-14 0 0)
(7.38967e-14 0 0)
(9.92353e-14 0 0)
(9.11134e-14 0 0)
(4.88582e-14 0 0)
(8.87792e-14 0 0)
(-9.80493e-15 0 0)
(1.03465e-13 0 0)
(2.20863e-15 0 0)
(5.62582e-14 0 0)
(-3.25479e-14 0 0)
(2.33601e-14 0 0)
(-4.68409e-14 0 0)
(-1.34021e-14 0 0)
(-5.4553e-14 0 0)
(-6.87613e-15 0 0)
(-3.6008e-14 0 0)
(-3.64236e-14 0 0)
(-2.52241e-14 0 0)
(-5.38387e-15 0 0)
(-1.52501e-15 0 0)
(-2.2054e-14 0 0)
(-2.06769e-14 0 0)
(-3.68059e-14 0 0)
(-4.20347e-15 0 0)
(-6.92775e-14 0 0)
(1.74334e-15 0 0)
(-2.40982e-14 0 0)
(3.37757e-15 0 0)
(-5.98929e-14 0 0)
(2.06874e-14 0 0)
(-5.04156e-14 0 0)
(-2.66399e-14 0 0)
(-5.46735e-14 0 0)
(-2.8143e-14 0 0)
(-9.27583e-14 0 0)
(-6.59738e-15 0 0)
(-6.03743e-14 0 0)
(-5.80185e-14 0 0)
(-5.50453e-14 0 0)
(-6.4069e-14 0 0)
(-4.03424e-14 0 0)
(-3.66368e-14 0 0)
(-2.81157e-14 0 0)
(-5.56244e-14 0 0)
(-2.60387e-14 0 0)
(-6.18882e-14 0 0)
(-6.95807e-15 0 0)
(-4.67975e-14 0 0)
(-6.46757e-14 0 0)
(-4.75791e-14 0 0)
(-7.1464e-14 0 0)
(-3.75443e-14 0 0)
(-8.8014e-14 0 0)
(-3.41502e-14 0 0)
(-1.06346e-13 0 0)
(-1.26919e-14 0 0)
(-8.29965e-14 0 0)
(-2.36995e-14 0 0)
(-6.90592e-14 0 0)
(-2.85912e-14 0 0)
(-4.14354e-14 0 0)
(7.86498e-15 0 0)
(2.12672e-14 0 0)
(7.95589e-14 0 0)
(1.6537e-13 0 0)
(2.00461e-13 0 0)
(3.92613e-13 0 0)
(5.35045e-13 0 0)
(9.79231e-13 0 0)
(1.43757e-12 0 0)
(2.34727e-12 0 0)
(3.57096e-12 0 0)
(5.58269e-12 0 0)
(8.58029e-12 0 0)
(1.32379e-11 0 0)
(2.02365e-11 0 0)
(3.0933e-11 0 0)
(4.70766e-11 0 0)
(7.14483e-11 0 0)
(1.08036e-10 0 0)
(1.62817e-10 0 0)
(2.44486e-10 0 0)
(3.65855e-10 0 0)
(5.45558e-10 0 0)
(8.10623e-10 0 0)
(1.20027e-09 0 0)
(1.77083e-09 0 0)
(2.60327e-09 0 0)
(3.81323e-09 0 0)
(5.56526e-09 0 0)
(8.09271e-09 0 0)
(1.17248e-08 0 0)
(1.69246e-08 0 0)
(2.43397e-08 0 0)
(3.48735e-08 0 0)
(4.97789e-08 0 0)
(7.07881e-08 0 0)
(1.00283e-07 0 0)
(1.41528e-07 0 0)
(1.98974e-07 0 0)
(2.78662e-07 0 0)
(3.88759e-07 0 0)
(5.4025e-07 0 0)
(7.47846e-07 0 0)
(1.03116e-06 0 0)
(1.4162e-06 0 0)
(1.93732e-06 0 0)
(2.63966e-06 0 0)
(3.58224e-06 0 0)
(4.8419e-06 0 0)
(6.5181e-06 0 0)
(8.73902e-06 0 0)
(1.1669e-05 0 0)
(1.55176e-05 0 0)
(2.05508e-05 0 0)
(2.71042e-05 0 0)
(3.55995e-05 0 0)
(4.6563e-05 0 0)
(6.06487e-05 0 0)
(7.86646e-05 0 0)
(0.000101603 0 0)
(0.000130678 0 0)
(0.000167361 0 0)
(0.000213432 0 0)
(0.000271029 0 0)
(0.000342702 0 0)
(0.000431479 0 0)
(0.000540933 0 0)
(0.00067525 0 0)
(0.000839312 0 0)
(0.00103877 0 0)
(0.00128013 0 0)
(0.00157083 0 0)
(0.00191933 0 0)
(0.00233517 0 0)
(0.00282908 0 0)
(0.00341298 0 0)
(0.00410012 0 0)
(0.00490505 0 0)
(0.00584369 0 0)
(0.00693333 0 0)
(0.00819263 0 0)
(0.00964162 0 0)
(0.0113016 0 0)
(0.0131952 0 0)
(0.0153462 0 0)
(0.0177794 0 0)
(0.0205207 0 0)
(0.0235967 0 0)
(0.027035 0 0)
(0.0308634 0 0)
(0.0351103 0 0)
(0.0398046 0 0)
(0.0449748 0 0)
(0.0506499 0 0)
(0.0568583 0 0)
(0.0636282 0 0)
(0.0709874 0 0)
(0.078963 0 0)
(0.0875812 0 0)
(0.0968678 0 0)
(0.106847 0 0)
(0.117543 0 0)
(0.128979 0 0)
(0.141174 0 0)
(0.154151 0 0)
(0.167929 0 0)
(0.182524 0 0)
(0.197955 0 0)
(0.214236 0 0)
(0.231383 0 0)
(0.249409 0 0)
(0.268326 0 0)
(0.288146 0 0)
(0.308879 0 0)
(0.330535 0 0)
(0.353123 0 0)
(0.37665 0 0)
(0.401123 0 0)
(0.426549 0 0)
(0.452933 0 0)
(0.48028 0 0)
(0.508596 0 0)
(0.537884 0 0)
(0.568147 0 0)
(0.59939 0 0)
(0.631614 0 0)
(0.664823 0 0)
(0.699019 0 0)
(0.734203 0 0)
(0.770378 0 0)
(0.807546 0 0)
(0.845707 0 0)
(0.884864 0 0)
(0.925018 0 0)
(0.966169 0 0)
(1.00832 0 0)
(1.05147 0 0)
(1.09562 0 0)
(1.14078 0 0)
(1.18693 0 0)
(1.2341 0 0)
(1.28226 0 0)
(1.33144 0 0)
(1.38162 0 0)
(1.43281 0 0)
(1.48501 0 0)
(1.53822 0 0)
(1.59245 0 0)
(1.64769 0 0)
(1.70394 0 0)
(1.76121 0 0)
(1.81949 0 0)
(1.8788 0 0)
(1.93913 0 0)
(2.00047 0 0)
(2.06285 0 0)
(2.12624 0 0)
(2.19067 0 0)
(2.25612 0 0)
(2.3226 0 0)
(2.39011 0 0)
(2.45866 0 0)
(2.52824 0 0)
(2.59886 0 0)
(2.67052 0 0)
(2.74322 0 0)
(2.81696 0 0)
(2.89174 0 0)
(2.96758 0 0)
(3.04446 0 0)
(3.1224 0 0)
(3.20139 0 0)
(3.28143 0 0)
(3.36253 0 0)
(3.44469 0 0)
(3.52792 0 0)
(3.61221 0 0)
(3.69757 0 0)
(3.78399 0 0)
(3.87149 0 0)
(3.96007 0 0)
(4.04972 0 0)
(4.14045 0 0)
(4.23226 0 0)
(4.32516 0 0)
(4.41915 0 0)
(4.51422 0 0)
(4.61039 0 0)
(4.70766 0 0)
(4.80602 0 0)
(4.90549 0 0)
(5.00605 0 0)
(5.10773 0 0)
(5.21051 0 0)
(5.31441 0 0)
(5.41942 0 0)
(5.52556 0 0)
(5.63281 0 0)
(5.74119 0 0)
(5.85069 0 0)
(5.96132 0 0)
(6.07309 0 0)
(6.186 0 0)
(6.30004 0 0)
(6.41523 0 0)
(6.53156 0 0)
(6.64904 0 0)
(6.76768 0 0)
(6.88747 0 0)
(7.00842 0 0)
(7.13053 0 0)
(7.25381 0 0)
(7.37826 0 0)
(7.50388 0 0)
(7.63068 0 0)
(7.75866 0 0)
(7.88782 0 0)
(8.01817 0 0)
(8.14971 0 0)
(8.28245 0 0)
(8.41638 0 0)
(8.55152 0 0)
(8.68787 0 0)
(8.82543 0 0)
(8.9642 0 0)
(9.10419 0 0)
(9.2454 0 0)
(9.38784 0 0)
(9.53151 0 0)
(9.67642 0 0)
(9.82257 0 0)
(9.96996 0 0)
(10.1186 0 0)
(10.2685 0 0)
(10.4197 0 0)
(10.5721 0 0)
(10.7258 0 0)
(10.8807 0 0)
(11.037 0 0)
(11.1945 0 0)
(11.3533 0 0)
(11.5134 0 0)
(11.6748 0 0)
(11.8375 0 0)
(12.0015 0 0)
(12.1668 0 0)
(12.3334 0 0)
(12.5014 0 0)
(12.6707 0 0)
(12.8413 0 0)
(13.0132 0 0)
(13.1865 0 0)
(13.3612 0 0)
(13.5372 0 0)
(13.7146 0 0)
(13.8933 0 0)
(14.0734 0 0)
(14.2549 0 0)
(14.4378 0 0)
(14.6221 0 0)
(14.8078 0 0)
(14.9949 0 0)
(15.1834 0 0)
(15.3733 0 0)
(15.5646 0 0)
(15.7574 0 0)
(15.9516 0 0)
(16.1473 0 0)
(16.3444 0 0)
(16.543 0 0)
(16.743 0 0)
(16.9445 0 0)
(17.1475 0 0)
(17.352 0 0)
(17.558 0 0)
(17.7654 0 0)
(17.9744 0 0)
(18.185 0 0)
(18.397 0 0)
(18.6106 0 0)
(18.8257 0 0)
(19.0424 0 0)
(19.2607 0 0)
(19.4805 0 0)
(19.7019 0 0)
(19.9249 0 0)
(20.1494 0 0)
(20.3756 0 0)
(20.6034 0 0)
(20.8329 0 0)
(21.0639 0 0)
(21.2967 0 0)
(21.531 0 0)
(21.7671 0 0)
(22.0048 0 0)
(22.2442 0 0)
(22.4852 0 0)
(22.7281 0 0)
(22.9725 0 0)
(23.219 0 0)
(23.4667 0 0)
(23.7168 0 0)
(23.9679 0 0)
(24.2217 0 0)
(24.4762 0 0)
(24.7337 0 0)
(24.9917 0 0)
(25.2531 0 0)
(25.5144 0 0)
(25.7798 0 0)
(26.0447 0 0)
(26.3139 0 0)
(26.5824 0 0)
(26.8556 0 0)
(27.1278 0 0)
(27.405 0 0)
(27.681 0 0)
(27.9622 0 0)
(28.2421 0 0)
(28.5273 0 0)
(28.8112 0 0)
(29.1004 0 0)
(29.3886 0 0)
(29.6816 0 0)
(29.9744 0 0)
(30.271 0 0)
(30.5689 0 0)
(30.8688 0 0)
(31.1721 0 0)
(31.475 0 0)
(31.7842 0 0)
(32.09 0 0)
(32.4052 0 0)
(32.7139 0 0)
(33.0354 0 0)
(33.347 0 0)
(33.6748 0 0)
(33.9895 0 0)
(34.3238 0 0)
(34.6415 0 0)
(34.9824 0 0)
(35.3033 0 0)
(35.651 0 0)
(35.975 0 0)
(36.3297 0 0)
(36.657 0 0)
(37.0187 0 0)
(37.3494 0 0)
(37.7185 0 0)
(38.0526 0 0)
(38.4291 0 0)
(38.7668 0 0)
(39.1509 0 0)
(39.4922 0 0)
(39.8843 0 0)
(40.2293 0 0)
(40.6295 0 0)
(40.9784 0 0)
(41.3869 0 0)
(41.7399 0 0)
(42.1568 0 0)
(42.5141 0 0)
(42.9397 0 0)
(43.3016 0 0)
(43.7358 0 0)
(44.1027 0 0)
(44.5459 0 0)
(44.9181 0 0)
(45.3702 0 0)
(45.7482 0 0)
(46.2095 0 0)
(46.5936 0 0)
(47.0643 0 0)
(47.4549 0 0)
(47.9351 0 0)
(48.3326 0 0)
(48.8225 0 0)
(49.2272 0 0)
(49.7267 0 0)
(50.1386 0 0)
(50.6471 0 0)
(51.0654 0 0)
(51.5815 0 0)
(52.0038 0 0)
(52.5233 0 0)
(52.9437 0 0)
(53.4619 0 0)
(53.8672 0 0)
(54.3707 0 0)
(54.7641 0 0)
(55.2616 0 0)
(55.6535 0 0)
(56.1548 0 0)
(56.552 0 0)
(57.0619 0 0)
(57.4655 0 0)
(57.9839 0 0)
(58.3928 0 0)
(58.9175 0 0)
(59.3305 0 0)
(59.86 0 0)
(60.2762 0 0)
(60.81 0 0)
(61.2294 0 0)
(61.7678 0 0)
(62.1905 0 0)
(62.7339 0 0)
(63.1601 0 0)
(63.7084 0 0)
(64.1382 0 0)
(64.6913 0 0)
(65.1245 0 0)
(65.6822 0 0)
(66.1187 0 0)
(66.681 0 0)
(67.1206 0 0)
(67.6872 0 0)
(68.1298 0 0)
(68.7008 0 0)
(69.1464 0 0)
(69.7217 0 0)
(70.17 0 0)
(70.7496 0 0)
(71.2006 0 0)
(71.7841 0 0)
(72.2376 0 0)
(72.8251 0 0)
(73.2808 0 0)
(73.872 0 0)
(74.3299 0 0)
(74.9247 0 0)
(75.3845 0 0)
(75.9829 0 0)
(76.4443 0 0)
(77.046 0 0)
(77.509 0 0)
(78.1137 0 0)
(78.5778 0 0)
(79.1853 0 0)
(79.65 0 0)
(80.26 0 0)
(80.725 0 0)
(81.3369 0 0)
(81.8018 0 0)
(82.4153 0 0)
(82.8796 0 0)
(83.4945 0 0)
(83.9576 0 0)
(84.5734 0 0)
(85.0347 0 0)
(85.6508 0 0)
(86.1094 0 0)
(86.725 0 0)
(87.1796 0 0)
(87.7934 0 0)
(88.2425 0 0)
(88.8529 0 0)
(89.2946 0 0)
(89.8997 0 0)
(90.3317 0 0)
(90.9295 0 0)
(91.3497 0 0)
(91.9383 0 0)
(92.3447 0 0)
(92.9241 0 0)
(93.3179 0 0)
(93.886 0 0)
(94.2577 0 0)
(94.8063 0 0)
(95.1403 0 0)
(95.667 0 0)
(95.9561 0 0)
(96.4587 0 0)
(96.6973 0 0)
(97.1738 0 0)
(97.3593 0 0)
(97.8072 0 0)
(97.9414 0 0)
(98.3633 0 0)
(98.4533 0 0)
(98.8611 0 0)
(98.9267 0 0)
(99.3505 0 0)
(99.4334 0 0)
(100.763 0 0)
)
;

boundaryField
{
    sideLeft
    {
        type            symmetryPlane;
    }
    sideRight
    {
        type            calculated;
        value           uniform (100.763 0 0);
    }
    topbottom
    {
        type            empty;
    }
    frontback
    {
        type            empty;
    }
}


// ************************************************************************* //
