/*--------------------------------*- C++ -*----------------------------------*\
| =========                 |                                                 |
| \\      /  F ield         | OpenFOAM: The Open Source CFD Toolbox           |
|  \\    /   O peration     | Version:  2.4.0                                 |
|   \\  /    A nd           | Web:      www.OpenFOAM.org                      |
|    \\/     M anipulation  |                                                 |
\*---------------------------------------------------------------------------*/
FoamFile
{
    version     2.0;
    format      ascii;
    class       volVectorField;
    location    "0.13";
    object      Ur;
}
// * * * * * * * * * * * * * * * * * * * * * * * * * * * * * * * * * * * * * //

dimensions      [0 1 -1 0 0 0 0];

internalField   nonuniform List<vector> 
1000
(
(-1.42109e-14 0 0)
(-4.26326e-14 0 0)
(-2.13163e-14 0 0)
(2.84217e-14 0 0)
(3.55271e-14 0 0)
(7.10543e-15 0 0)
(-3.55271e-14 0 0)
(-2.13163e-14 0 0)
(3.55271e-14 0 0)
(4.26326e-14 0 0)
(4.26326e-14 0 0)
(-1.42109e-14 0 0)
(-7.10543e-14 0 0)
(-1.42109e-14 0 0)
(2.13163e-14 0 0)
(1.42109e-14 0 0)
(-1.42109e-14 0 0)
(-2.84217e-14 0 0)
(4.9738e-14 0 0)
(6.39488e-14 0 0)
(-7.10543e-15 0 0)
(-2.84217e-14 0 0)
(-7.10543e-15 0 0)
(7.10543e-15 0 0)
(-2.84217e-14 0 0)
(-2.84217e-14 0 0)
(2.84217e-14 0 0)
(4.9738e-14 0 0)
(4.9738e-14 0 0)
(2.13163e-14 0 0)
(-7.10543e-15 0 0)
(-1.42109e-14 0 0)
(-1.42109e-14 0 0)
(-7.10543e-15 0 0)
(-2.13163e-14 0 0)
(5.38198e-22 0 0)
(4.26326e-14 0 0)
(-7.10543e-15 0 0)
(-4.9738e-14 0 0)
(-7.10543e-14 0 0)
(-2.50969e-21 0 0)
(5.68434e-14 0 0)
(-2.84217e-14 0 0)
(7.10543e-15 0 0)
(4.9738e-14 0 0)
(-1.42109e-14 0 0)
(-3.55271e-14 0 0)
(1.42109e-14 0 0)
(2.84217e-14 0 0)
(-2.13163e-14 0 0)
(1.42109e-14 0 0)
(7.10543e-15 0 0)
(-1.42109e-14 0 0)
(4.26326e-14 0 0)
(4.26326e-14 0 0)
(2.7336e-22 0 0)
(-4.26326e-14 0 0)
(-4.9738e-14 0 0)
(-7.10543e-15 0 0)
(1.42109e-14 0 0)
(-1.42109e-14 0 0)
(-2.84217e-14 0 0)
(-7.10543e-15 0 0)
(-2.13163e-14 0 0)
(2.13163e-14 0 0)
(4.26326e-14 0 0)
(-4.26326e-14 0 0)
(-2.13163e-14 0 0)
(7.10543e-15 0 0)
(-3.55271e-14 0 0)
(4.9738e-14 0 0)
(4.26326e-14 0 0)
(2.13163e-14 0 0)
(2.13163e-14 0 0)
(-2.13163e-14 0 0)
(2.84217e-14 0 0)
(-5.68434e-14 0 0)
(-2.84217e-14 0 0)
(8.52651e-14 0 0)
(-3.55271e-14 0 0)
(-2.13163e-14 0 0)
(2.13163e-14 0 0)
(-9.9476e-14 0 0)
(-3.74114e-22 0 0)
(5.68434e-14 0 0)
(3.55271e-14 0 0)
(3.55271e-14 0 0)
(-2.84217e-14 0 0)
(-7.10543e-15 0 0)
(4.26326e-14 0 0)
(2.84217e-14 0 0)
(-7.10542e-15 0 0)
(-2.13163e-14 0 0)
(-7.10543e-15 0 0)
(-7.10543e-15 0 0)
(-1.42109e-14 0 0)
(2.84217e-14 0 0)
(2.13163e-14 0 0)
(-3.55271e-14 0 0)
(-7.10543e-15 0 0)
(6.39488e-14 0 0)
(-7.10543e-15 0 0)
(-8.52651e-14 0 0)
(2.13163e-14 0 0)
(2.84217e-14 0 0)
(-6.39488e-14 0 0)
(-2.84217e-14 0 0)
(1.42109e-14 0 0)
(2.13163e-14 0 0)
(-2.13163e-14 0 0)
(-2.29532e-21 0 0)
(6.39488e-14 0 0)
(-2.13163e-14 0 0)
(-2.13163e-14 0 0)
(-2.84217e-14 0 0)
(-7.10543e-15 0 0)
(-2.85389e-22 0 0)
(-3.55271e-14 0 0)
(4.59998e-22 0 0)
(1.42109e-14 0 0)
(-1.30781e-21 0 0)
(-1.42109e-14 0 0)
(1.42109e-14 0 0)
(4.9738e-14 0 0)
(2.13163e-14 0 0)
(-4.26326e-14 0 0)
(-7.10543e-15 0 0)
(7.10543e-14 0 0)
(4.26326e-14 0 0)
(-8.52651e-14 0 0)
(-7.10543e-14 0 0)
(1.42109e-14 0 0)
(-1.42109e-14 0 0)
(2.13163e-14 0 0)
(1.13687e-13 0 0)
(-7.46225e-22 0 0)
(-1.42109e-14 0 0)
(-1.42344e-21 0 0)
(-3.55271e-14 0 0)
(-7.10542e-15 0 0)
(1.24666e-21 0 0)
(4.9738e-14 0 0)
(-7.10543e-15 0 0)
(-3.55271e-14 0 0)
(3.65927e-21 0 0)
(-1.42109e-14 0 0)
(-1.42109e-14 0 0)
(-1.42109e-14 0 0)
(1.35243e-21 0 0)
(6.39488e-14 0 0)
(2.84217e-14 0 0)
(-5.68434e-14 0 0)
(-6.39488e-14 0 0)
(4.9738e-14 0 0)
(7.10543e-14 0 0)
(-4.26326e-14 0 0)
(-1.42109e-14 0 0)
(1.00956e-21 0 0)
(-7.10543e-15 0 0)
(6.39488e-14 0 0)
(-1.42109e-14 0 0)
(-7.10543e-14 0 0)
(1.42109e-14 0 0)
(-2.13163e-14 0 0)
(-6.39488e-14 0 0)
(-1.42109e-14 0 0)
(3.55271e-14 0 0)
(1.42109e-14 0 0)
(3.55271e-14 0 0)
(2.84217e-14 0 0)
(-2.13163e-14 0 0)
(-2.13163e-14 0 0)
(-3.55271e-14 0 0)
(-1.42109e-14 0 0)
(2.13163e-14 0 0)
(2.13163e-14 0 0)
(3.55271e-14 0 0)
(7.10543e-15 0 0)
(-2.13163e-14 0 0)
(-7.10543e-15 0 0)
(-7.10543e-15 0 0)
(4.26326e-14 0 0)
(3.32626e-21 0 0)
(-5.68434e-14 0 0)
(-2.13163e-14 0 0)
(4.9738e-14 0 0)
(-2.13163e-14 0 0)
(-6.39488e-14 0 0)
(5.68434e-14 0 0)
(2.84217e-14 0 0)
(-7.02949e-22 0 0)
(2.13163e-14 0 0)
(-7.10543e-15 0 0)
(-7.10543e-15 0 0)
(-4.26326e-14 0 0)
(-2.13163e-14 0 0)
(2.84217e-14 0 0)
(2.13163e-14 0 0)
(-7.10543e-15 0 0)
(-1.42109e-14 0 0)
(7.10543e-15 0 0)
(-7.10543e-15 0 0)
(-7.10543e-15 0 0)
(-1.42109e-14 0 0)
(1.42109e-14 0 0)
(6.39488e-14 0 0)
(7.10543e-15 0 0)
(-2.43383e-21 0 0)
(2.13163e-14 0 0)
(-5.68434e-14 0 0)
(-5.68434e-14 0 0)
(3.55271e-14 0 0)
(1.42109e-14 0 0)
(-6.39488e-14 0 0)
(-2.13163e-14 0 0)
(5.68434e-14 0 0)
(2.13163e-14 0 0)
(-1.42109e-14 0 0)
(-2.35213e-21 0 0)
(-7.10543e-15 0 0)
(-7.10542e-15 0 0)
(-7.10543e-15 0 0)
(-4.26326e-14 0 0)
(3.55271e-14 0 0)
(1.20792e-13 0 0)
(3.55271e-14 0 0)
(-7.10543e-14 0 0)
(-4.9738e-14 0 0)
(-2.13163e-14 0 0)
(-3.64925e-22 0 0)
(3.55271e-14 0 0)
(-2.13163e-14 0 0)
(-7.10543e-15 0 0)
(3.55271e-14 0 0)
(2.13163e-14 0 0)
(-2.13163e-14 0 0)
(-2.84217e-14 0 0)
(1.42109e-14 0 0)
(2.13163e-14 0 0)
(-4.26326e-14 0 0)
(-2.84217e-14 0 0)
(-2.84217e-14 0 0)
(2.13163e-14 0 0)
(3.55271e-14 0 0)
(-2.13163e-14 0 0)
(2.84217e-14 0 0)
(4.26326e-14 0 0)
(2.84217e-14 0 0)
(-2.84217e-14 0 0)
(-8.52651e-14 0 0)
(7.10543e-15 0 0)
(4.9738e-14 0 0)
(-1.42109e-14 0 0)
(9.18926e-24 0 0)
(6.39488e-14 0 0)
(7.10543e-15 0 0)
(-5.68434e-14 0 0)
(-7.10542e-15 0 0)
(2.32523e-21 0 0)
(-7.10543e-15 0 0)
(3.55271e-14 0 0)
(2.13163e-14 0 0)
(-3.55271e-14 0 0)
(-1.42109e-14 0 0)
(1.42109e-14 0 0)
(-1.42109e-14 0 0)
(7.10543e-15 0 0)
(7.10543e-15 0 0)
(-2.13163e-14 0 0)
(-2.84217e-14 0 0)
(7.10543e-15 0 0)
(5.68434e-14 0 0)
(2.84217e-14 0 0)
(-1.42109e-14 0 0)
(-2.13163e-14 0 0)
(2.13163e-14 0 0)
(1.42109e-14 0 0)
(-2.84217e-14 0 0)
(-2.84217e-14 0 0)
(7.10543e-15 0 0)
(1.01741e-21 0 0)
(-1.42109e-14 0 0)
(2.13163e-14 0 0)
(7.10543e-15 0 0)
(-1.42109e-14 0 0)
(1.42109e-14 0 0)
(7.10543e-15 0 0)
(3.55271e-14 0 0)
(2.13163e-14 0 0)
(-1.42109e-14 0 0)
(3.55271e-14 0 0)
(6.39488e-14 0 0)
(-4.9738e-14 0 0)
(-7.10543e-14 0 0)
(-7.10543e-15 0 0)
(2.84217e-14 0 0)
(7.10543e-15 0 0)
(-5.68434e-14 0 0)
(-7.10543e-15 0 0)
(6.39488e-14 0 0)
(6.39488e-14 0 0)
(-7.10543e-15 0 0)
(-3.55271e-14 0 0)
(-2.13163e-14 0 0)
(-2.13163e-14 0 0)
(-7.81597e-14 0 0)
(4.9738e-14 0 0)
(1.06581e-13 0 0)
(-6.39488e-14 0 0)
(-1.42109e-14 0 0)
(1.42109e-14 0 0)
(-3.55271e-14 0 0)
(-2.84217e-14 0 0)
(-3.55271e-14 0 0)
(4.9738e-14 0 0)
(7.10543e-14 0 0)
(-7.52573e-22 0 0)
(-1.42109e-14 0 0)
(-2.84217e-14 0 0)
(1.98436e-21 0 0)
(2.84217e-14 0 0)
(2.84217e-14 0 0)
(-6.25417e-22 0 0)
(-4.9738e-14 0 0)
(-4.26326e-14 0 0)
(1.21124e-21 0 0)
(3.55271e-14 0 0)
(7.10543e-15 0 0)
(-3.55271e-14 0 0)
(-1.42109e-14 0 0)
(-5.68434e-14 0 0)
(-7.10543e-15 0 0)
(6.39488e-14 0 0)
(6.39488e-14 0 0)
(-2.84217e-14 0 0)
(-6.39488e-14 0 0)
(1.42109e-14 0 0)
(1.42109e-14 0 0)
(-1.42109e-14 0 0)
(-2.84217e-14 0 0)
(3.55271e-14 0 0)
(1.51233e-21 0 0)
(-7.81597e-14 0 0)
(2.13163e-14 0 0)
(7.81597e-14 0 0)
(1.42109e-14 0 0)
(-6.39488e-14 0 0)
(-4.9738e-14 0 0)
(7.10543e-14 0 0)
(4.9738e-14 0 0)
(-1.55562e-22 0 0)
(2.13163e-14 0 0)
(2.13163e-14 0 0)
(-4.26326e-14 0 0)
(-3.55271e-14 0 0)
(2.13163e-14 0 0)
(1.42109e-14 0 0)
(7.10542e-15 0 0)
(1.42109e-14 0 0)
(1.42109e-14 0 0)
(4.26326e-14 0 0)
(-3.12461e-23 0 0)
(-7.10543e-14 0 0)
(-1.42109e-14 0 0)
(4.9738e-14 0 0)
(2.84217e-14 0 0)
(1.42109e-14 0 0)
(-7.10543e-15 0 0)
(-2.84217e-14 0 0)
(-2.84217e-14 0 0)
(3.55271e-14 0 0)
(-7.10543e-15 0 0)
(-3.55271e-14 0 0)
(-2.84217e-14 0 0)
(-2.13163e-14 0 0)
(3.55271e-14 0 0)
(-2.84217e-14 0 0)
(-2.13163e-14 0 0)
(1.42109e-14 0 0)
(4.26326e-14 0 0)
(6.39488e-14 0 0)
(1.42109e-14 0 0)
(-4.9738e-14 0 0)
(-3.55271e-14 0 0)
(2.84217e-14 0 0)
(4.26326e-14 0 0)
(7.10543e-15 0 0)
(-3.55271e-14 0 0)
(-2.13163e-14 0 0)
(-2.13163e-14 0 0)
(-1.42109e-14 0 0)
(2.13163e-14 0 0)
(7.10543e-15 0 0)
(5.68434e-14 0 0)
(2.84217e-14 0 0)
(-4.9738e-14 0 0)
(1.42109e-14 0 0)
(1.42109e-14 0 0)
(-4.26326e-14 0 0)
(-4.99765e-22 0 0)
(5.89838e-23 0 0)
(-2.13163e-14 0 0)
(1.42109e-14 0 0)
(2.13163e-14 0 0)
(2.13163e-14 0 0)
(2.84217e-14 0 0)
(-4.26326e-14 0 0)
(-2.13163e-14 0 0)
(4.26326e-14 0 0)
(2.54244e-21 0 0)
(2.65505e-22 0 0)
(7.10543e-15 0 0)
(4.26326e-14 0 0)
(4.9738e-14 0 0)
(-3.55271e-14 0 0)
(-1.42109e-14 0 0)
(2.84217e-14 0 0)
(2.13163e-14 0 0)
(5.68434e-14 0 0)
(7.10543e-15 0 0)
(-5.68434e-14 0 0)
(9.54919e-22 0 0)
(6.39488e-14 0 0)
(2.84217e-14 0 0)
(-5.68434e-14 0 0)
(-2.84217e-14 0 0)
(-6.39488e-14 0 0)
(-3.55271e-14 0 0)
(6.39488e-14 0 0)
(-2.13163e-14 0 0)
(-7.10543e-15 0 0)
(2.84217e-14 0 0)
(-4.26326e-14 0 0)
(-7.10543e-15 0 0)
(3.55271e-14 0 0)
(-1.42109e-14 0 0)
(-2.84217e-14 0 0)
(-2.13163e-14 0 0)
(7.10542e-15 0 0)
(-2.45155e-21 0 0)
(7.10543e-15 0 0)
(1.42109e-14 0 0)
(2.13163e-14 0 0)
(4.26326e-14 0 0)
(-2.13163e-14 0 0)
(-4.9738e-14 0 0)
(2.13163e-14 0 0)
(2.13163e-14 0 0)
(3.55271e-14 0 0)
(2.13163e-14 0 0)
(-7.10543e-15 0 0)
(7.51239e-22 0 0)
(-4.9738e-14 0 0)
(-1.42109e-14 0 0)
(1.42109e-14 0 0)
(2.13163e-14 0 0)
(2.84217e-14 0 0)
(-7.10543e-15 0 0)
(-7.81597e-14 0 0)
(2.01627e-21 0 0)
(5.68434e-14 0 0)
(-3.97676e-23 0 0)
(-2.84217e-14 0 0)
(1.10196e-21 0 0)
(-7.10543e-15 0 0)
(-2.84217e-14 0 0)
(4.26326e-14 0 0)
(-2.84217e-14 0 0)
(-7.81597e-14 0 0)
(5.68434e-14 0 0)
(7.81597e-14 0 0)
(-2.13163e-14 0 0)
(-8.52651e-14 0 0)
(-1.42109e-14 0 0)
(-7.10543e-15 0 0)
(1.42109e-14 0 0)
(6.39488e-14 0 0)
(-2.44287e-22 0 0)
(7.10543e-15 0 0)
(7.10543e-15 0 0)
(4.26326e-14 0 0)
(-3.55271e-14 0 0)
(-4.26326e-14 0 0)
(7.10543e-15 0 0)
(-2.13163e-14 0 0)
(2.13163e-14 0 0)
(3.55271e-14 0 0)
(5.68434e-14 0 0)
(-5.11299e-23 0 0)
(-3.55271e-14 0 0)
(-2.84217e-14 0 0)
(-7.10543e-15 0 0)
(3.55271e-14 0 0)
(-5.48055e-22 0 0)
(2.13163e-14 0 0)
(-7.81597e-14 0 0)
(-2.84217e-14 0 0)
(-7.10543e-15 0 0)
(-3.55271e-14 0 0)
(7.10543e-14 0 0)
(3.80463e-22 0 0)
(1.42109e-14 0 0)
(3.55271e-14 0 0)
(-2.13163e-14 0 0)
(-4.26326e-14 0 0)
(1.42109e-14 0 0)
(5.68434e-14 0 0)
(7.10543e-15 0 0)
(-4.26326e-14 0 0)
(-7.10543e-14 0 0)
(-5.68434e-14 0 0)
(3.55271e-14 0 0)
(4.26326e-14 0 0)
(-1.42108e-14 0 0)
(6.39489e-14 0 0)
(2.13163e-14 0 0)
(5.68435e-14 0 0)
(1.13687e-13 0 0)
(4.97381e-14 0 0)
(1.06582e-13 0 0)
(2.98428e-13 0 0)
(4.26326e-13 0 0)
(5.82646e-13 0 0)
(9.16601e-13 0 0)
(1.35714e-12 0 0)
(2.03215e-12 0 0)
(3.06244e-12 0 0)
(4.71801e-12 0 0)
(7.03438e-12 0 0)
(1.03881e-11 0 0)
(1.54898e-11 0 0)
(2.30856e-11 0 0)
(3.41203e-11 0 0)
(5.0072e-11 0 0)
(7.34418e-11 0 0)
(1.07313e-10 0 0)
(1.56035e-10 0 0)
(2.26095e-10 0 0)
(3.26218e-10 0 0)
(4.68746e-10 0 0)
(6.70817e-10 0 0)
(9.56434e-10 0 0)
(1.3581e-09 0 0)
(1.92014e-09 0 0)
(2.70375e-09 0 0)
(3.79119e-09 0 0)
(5.2936e-09 0 0)
(7.35988e-09 0 0)
(1.01888e-08 0 0)
(1.40442e-08 0 0)
(1.9274e-08 0 0)
(2.63349e-08 0 0)
(3.58227e-08 0 0)
(4.85107e-08 0 0)
(6.53955e-08 0 0)
(8.77551e-08 0 0)
(1.17217e-07 0 0)
(1.55843e-07 0 0)
(2.06223e-07 0 0)
(2.71597e-07 0 0)
(3.5598e-07 0 0)
(4.64322e-07 0 0)
(6.02676e-07 0 0)
(7.78389e-07 0 0)
(1.00031e-06 0 0)
(1.279e-06 0 0)
(1.62699e-06 0 0)
(2.05896e-06 0 0)
(2.592e-06 0 0)
(3.24577e-06 0 0)
(4.04268e-06 0 0)
(5.00795e-06 0 0)
(6.16966e-06 0 0)
(7.55862e-06 0 0)
(9.20815e-06 0 0)
(1.11537e-05 0 0)
(1.34323e-05 0 0)
(1.60818e-05 0 0)
(1.91398e-05 0 0)
(2.26426e-05 0 0)
(2.66235e-05 0 0)
(3.11115e-05 0 0)
(3.61293e-05 0 0)
(4.16915e-05 0 0)
(4.78028e-05 0 0)
(5.44556e-05 0 0)
(6.1629e-05 0 0)
(6.92867e-05 0 0)
(7.73764e-05 0 0)
(8.5829e-05 0 0)
(9.45586e-05 0 0)
(0.000103463 0 0)
(0.000112426 0 0)
(0.000121319 0 0)
(0.000130002 0 0)
(0.000138331 0 0)
(0.000146158 0 0)
(0.000153339 0 0)
(0.000159733 0 0)
(0.000165213 0 0)
(0.000169666 0 0)
(0.000172997 0 0)
(0.000175131 0 0)
(0.00017602 0 0)
(0.000175636 0 0)
(0.000173981 0 0)
(0.000171078 0 0)
(0.000166975 0 0)
(0.000161742 0 0)
(0.000155466 0 0)
(0.00014825 0 0)
(0.00014021 0 0)
(0.000131469 0 0)
(0.000122155 0 0)
(0.000112398 0 0)
(0.000102329 0 0)
(9.20702e-05 0 0)
(8.17408e-05 0 0)
(7.14503e-05 0 0)
(6.12983e-05 0 0)
(5.13738e-05 0 0)
(4.17541e-05 0 0)
(3.25049e-05 0 0)
(2.36803e-05 0 0)
(1.53229e-05 0 0)
(7.46477e-06 0 0)
(1.27863e-07 0 0)
(-6.675e-06 0 0)
(-1.29392e-05 0 0)
(-1.86675e-05 0 0)
(-2.38687e-05 0 0)
(-2.85573e-05 0 0)
(-3.27519e-05 0 0)
(-3.64747e-05 0 0)
(-3.97505e-05 0 0)
(-4.26063e-05 0 0)
(-4.50703e-05 0 0)
(-4.71713e-05 0 0)
(-4.89385e-05 0 0)
(-5.04007e-05 0 0)
(-5.15862e-05 0 0)
(-5.2522e-05 0 0)
(-5.32344e-05 0 0)
(-5.37478e-05 0 0)
(-5.40854e-05 0 0)
(-5.42687e-05 0 0)
(-5.43175e-05 0 0)
(-5.42501e-05 0 0)
(-5.40827e-05 0 0)
(-5.38305e-05 0 0)
(-5.35067e-05 0 0)
(-5.31232e-05 0 0)
(-5.26904e-05 0 0)
(-5.22177e-05 0 0)
(-5.17131e-05 0 0)
(-5.11834e-05 0 0)
(-5.06348e-05 0 0)
(-5.00724e-05 0 0)
(-4.95006e-05 0 0)
(-4.89229e-05 0 0)
(-4.83426e-05 0 0)
(-4.77622e-05 0 0)
(-4.71838e-05 0 0)
(-4.66093e-05 0 0)
(-4.604e-05 0 0)
(-4.5477e-05 0 0)
(-4.49214e-05 0 0)
(-4.43738e-05 0 0)
(-4.38347e-05 0 0)
(-4.33047e-05 0 0)
(-4.2784e-05 0 0)
(-4.22728e-05 0 0)
(-4.17713e-05 0 0)
(-4.12796e-05 0 0)
(-4.07976e-05 0 0)
(-4.03253e-05 0 0)
(-3.98627e-05 0 0)
(-3.94097e-05 0 0)
(-3.89663e-05 0 0)
(-3.85322e-05 0 0)
(-3.81073e-05 0 0)
(-3.76915e-05 0 0)
(-3.72846e-05 0 0)
(-3.68864e-05 0 0)
(-3.64967e-05 0 0)
(-3.61155e-05 0 0)
(-3.57424e-05 0 0)
(-3.53773e-05 0 0)
(-3.50199e-05 0 0)
(-3.46701e-05 0 0)
(-3.43276e-05 0 0)
(-3.39922e-05 0 0)
(-3.36637e-05 0 0)
(-3.33418e-05 0 0)
(-3.30263e-05 0 0)
(-3.27169e-05 0 0)
(-3.24134e-05 0 0)
(-3.21154e-05 0 0)
(-3.18226e-05 0 0)
(-3.15349e-05 0 0)
(-3.12518e-05 0 0)
(-3.09731e-05 0 0)
(-3.06984e-05 0 0)
(-3.04275e-05 0 0)
(-3.01601e-05 0 0)
(-2.98959e-05 0 0)
(-2.96345e-05 0 0)
(-2.93758e-05 0 0)
(-2.91195e-05 0 0)
(-2.88653e-05 0 0)
(-2.86131e-05 0 0)
(-2.83626e-05 0 0)
(-2.81138e-05 0 0)
(-2.78665e-05 0 0)
(-2.76206e-05 0 0)
(-2.73759e-05 0 0)
(-2.71325e-05 0 0)
(-2.68904e-05 0 0)
(-2.66494e-05 0 0)
(-2.64097e-05 0 0)
(-2.61713e-05 0 0)
(-2.59341e-05 0 0)
(-2.56984e-05 0 0)
(-2.5464e-05 0 0)
(-2.52312e-05 0 0)
(-2.5e-05 0 0)
(-2.47705e-05 0 0)
(-2.45427e-05 0 0)
(-2.43168e-05 0 0)
(-2.40929e-05 0 0)
(-2.3871e-05 0 0)
(-2.36512e-05 0 0)
(-2.34336e-05 0 0)
(-2.32183e-05 0 0)
(-2.30053e-05 0 0)
(-2.27947e-05 0 0)
(-2.25866e-05 0 0)
(-2.2381e-05 0 0)
(-2.21779e-05 0 0)
(-2.19774e-05 0 0)
(-2.17796e-05 0 0)
(-2.15843e-05 0 0)
(-2.13916e-05 0 0)
(-2.12016e-05 0 0)
(-2.10141e-05 0 0)
(-2.08292e-05 0 0)
(-2.06469e-05 0 0)
(-2.0467e-05 0 0)
(-2.02896e-05 0 0)
(-2.01145e-05 0 0)
(-1.99417e-05 0 0)
(-1.97711e-05 0 0)
(-1.96027e-05 0 0)
(-1.94364e-05 0 0)
(-1.92721e-05 0 0)
(-1.91097e-05 0 0)
(-1.89491e-05 0 0)
(-1.87903e-05 0 0)
(-1.86331e-05 0 0)
(-1.84775e-05 0 0)
(-1.83233e-05 0 0)
(-1.81706e-05 0 0)
(-1.80191e-05 0 0)
(-1.78688e-05 0 0)
(-1.77197e-05 0 0)
(-1.75718e-05 0 0)
(-1.74249e-05 0 0)
(-1.7279e-05 0 0)
(-1.71342e-05 0 0)
(-1.69905e-05 0 0)
(-1.68478e-05 0 0)
(-1.67061e-05 0 0)
(-1.65654e-05 0 0)
(-1.64259e-05 0 0)
(-1.62874e-05 0 0)
(-1.61499e-05 0 0)
(-1.60136e-05 0 0)
(-1.58783e-05 0 0)
(-1.57441e-05 0 0)
(-1.5611e-05 0 0)
(-1.5479e-05 0 0)
(-1.5348e-05 0 0)
(-1.52181e-05 0 0)
(-1.50894e-05 0 0)
(-1.49617e-05 0 0)
(-1.48351e-05 0 0)
(-1.47096e-05 0 0)
(-1.45852e-05 0 0)
(-1.4462e-05 0 0)
(-1.43401e-05 0 0)
(-1.42191e-05 0 0)
(-1.40998e-05 0 0)
(-1.39811e-05 0 0)
(-1.38647e-05 0 0)
(-1.37477e-05 0 0)
(-1.36346e-05 0 0)
(-1.35179e-05 0 0)
(-1.34098e-05 0 0)
(-1.32907e-05 0 0)
(-1.31906e-05 0 0)
(-1.30643e-05 0 0)
(-1.29779e-05 0 0)
(-1.28375e-05 0 0)
(-1.27717e-05 0 0)
(-1.26122e-05 0 0)
(-1.2569e-05 0 0)
(-1.23988e-05 0 0)
(-1.23595e-05 0 0)
(-1.22177e-05 0 0)
(-1.2125e-05 0 0)
(-1.20863e-05 0 0)
(-1.18493e-05 0 0)
(-1.19884e-05 0 0)
(-1.15513e-05 0 0)
(-1.18609e-05 0 0)
(-1.13117e-05 0 0)
(-1.16543e-05 0 0)
(-1.13274e-05 0 0)
(-9.89295e-06 0 0)
(-1.17582e-05 0 0)
(-1.2839e-05 0 0)
(-9.96318e-06 0 0)
(-1.08488e-05 0 0)
(-1.0408e-05 0 0)
(-1.14742e-05 0 0)
(-9.98782e-06 0 0)
(-1.04475e-05 0 0)
(-1.03172e-05 0 0)
(-1.14059e-05 0 0)
(-9.20915e-06 0 0)
(-1.1916e-05 0 0)
(-8.15348e-06 0 0)
(-1.31399e-05 0 0)
(-6.80216e-06 0 0)
(-1.40665e-05 0 0)
(-5.61527e-06 0 0)
(-1.41837e-05 0 0)
(-4.14259e-06 0 0)
(7.67298e-07 0 0)
(-1.82794e-05 0 0)
(-4.02173e-06 0 0)
(-1.72975e-05 0 0)
(-7.12999e-06 0 0)
(-1.33937e-05 0 0)
(-6.79882e-06 0 0)
(-7.48464e-06 0 0)
(-6.65625e-05 0 0)
(4.91017e-05 0 0)
(-1.10395e-05 0 0)
(-1.06349e-05 0 0)
(-1.8469e-05 0 0)
(6.80053e-06 0 0)
(-9.83176e-06 0 0)
(-1.11327e-05 0 0)
(-4.22731e-06 0 0)
(-8.49086e-06 0 0)
(-1.22998e-05 0 0)
(-5.91002e-06 0 0)
(-4.66347e-06 0 0)
(-1.00712e-05 0 0)
(-9.42473e-06 0 0)
(-6.14708e-06 0 0)
(-6.30435e-06 0 0)
(-8.47396e-06 0 0)
(-7.28324e-06 0 0)
(-8.07989e-06 0 0)
(-7.25645e-06 0 0)
(-6.91094e-06 0 0)
(-7.33801e-06 0 0)
(-6.25346e-06 0 0)
(-5.82774e-06 0 0)
(-7.37017e-06 0 0)
(-7.90054e-06 0 0)
(-4.11624e-06 0 0)
(-7.06222e-06 0 0)
(-6.41587e-06 0 0)
(-4.40495e-06 0 0)
(-7.65092e-06 0 0)
(-2.60235e-06 0 0)
(-8.93743e-06 0 0)
(-2.01452e-06 0 0)
(-8.95507e-06 0 0)
(-2.57538e-06 0 0)
(-8.67329e-06 0 0)
(-2.83709e-06 0 0)
(-7.58083e-06 0 0)
(-5.58288e-06 0 0)
(-4.7729e-06 0 0)
(-8.47663e-06 0 0)
(-3.35763e-06 0 0)
(-3.75195e-06 0 0)
(-4.51336e-06 0 0)
(-3.3874e-06 0 0)
(-5.92056e-06 0 0)
(-2.84047e-06 0 0)
(-6.54984e-06 0 0)
(-9.01592e-06 0 0)
(-1.19579e-05 0 0)
(-1.78729e-05 0 0)
(-4.82531e-05 0 0)
(5.18795e-06 0 0)
(4.12688e-05 0 0)
(-2.52599e-05 0 0)
(-1.39009e-05 0 0)
(5.38192e-06 0 0)
(-1.14479e-06 0 0)
(4.19447e-06 0 0)
(9.53805e-06 0 0)
(3.07504e-07 0 0)
(7.91523e-06 0 0)
(2.24355e-06 0 0)
(5.63689e-06 0 0)
(2.20348e-06 0 0)
(4.16153e-06 0 0)
(7.08499e-06 0 0)
(6.65244e-06 0 0)
(4.72443e-06 0 0)
(2.01231e-06 0 0)
(6.23702e-06 0 0)
(9.86385e-06 0 0)
(5.54355e-06 0 0)
(6.16935e-06 0 0)
(7.61672e-06 0 0)
(7.7205e-06 0 0)
(6.34373e-06 0 0)
(7.84345e-06 0 0)
(9.74739e-06 0 0)
(1.03371e-05 0 0)
(1.20413e-05 0 0)
(1.16982e-05 0 0)
(1.29362e-05 0 0)
(1.16836e-05 0 0)
(1.06629e-05 0 0)
(1.04025e-05 0 0)
(9.96685e-06 0 0)
(1.12681e-05 0 0)
(1.26803e-05 0 0)
(1.49015e-05 0 0)
(1.72235e-05 0 0)
(1.88314e-05 0 0)
(1.95349e-05 0 0)
(2.00992e-05 0 0)
(1.91594e-05 0 0)
(1.84392e-05 0 0)
(1.8089e-05 0 0)
(1.63353e-05 0 0)
(1.76307e-05 0 0)
(1.69509e-05 0 0)
(1.97989e-05 0 0)
(2.06018e-05 0 0)
(2.3499e-05 0 0)
(2.34815e-05 0 0)
(2.82197e-05 0 0)
(3.14021e-05 0 0)
(3.14651e-05 0 0)
(3.65344e-05 0 0)
(2.3838e-05 0 0)
(3.4856e-05 0 0)
(2.94138e-05 0 0)
(3.54734e-05 0 0)
(3.82578e-05 0 0)
(2.3127e-05 0 0)
(3.45571e-05 0 0)
(2.80536e-05 0 0)
(3.91902e-05 0 0)
(4.12989e-05 0 0)
(4.22997e-05 0 0)
(3.86962e-05 0 0)
(4.39828e-05 0 0)
(4.72269e-05 0 0)
(4.55178e-05 0 0)
(6.50506e-05 0 0)
(5.79458e-05 0 0)
(6.14668e-05 0 0)
(2.77335e-05 0 0)
(0.000418523 0 0)
(0.00379662 0 0)
(-0.00268223 0 0)
(-0.00302239 0 0)
(0.00633267 0 0)
(0.00526038 0 0)
(0.00403333 0 0)
(-0.00122408 0 0)
(0.00162719 0 0)
(-0.00080699 0 0)
(6.7638e-05 0 0)
(0.000250808 0 0)
(5.6453e-05 0 0)
(0.00018113 0 0)
(0.000154365 0 0)
(9.27621e-05 0 0)
(0.000101601 0 0)
(0.000146972 0 0)
(0.000106764 0 0)
(0.000198169 0 0)
(0.000109785 0 0)
(0.000147795 0 0)
(0.000378796 0 0)
(-0.00035727 0 0)
(3.98001e-06 0 0)
)
;

boundaryField
{
    sideLeft
    {
        type            symmetryPlane;
    }
    sideRight
    {
        type            calculated;
        value           uniform (-0.441602 0 0);
    }
    topbottom
    {
        type            empty;
    }
    frontback
    {
        type            empty;
    }
}


// ************************************************************************* //
