/*--------------------------------*- C++ -*----------------------------------*\
| =========                 |                                                 |
| \\      /  F ield         | OpenFOAM: The Open Source CFD Toolbox           |
|  \\    /   O peration     | Version:  2.4.0                                 |
|   \\  /    A nd           | Web:      www.OpenFOAM.org                      |
|    \\/     M anipulation  |                                                 |
\*---------------------------------------------------------------------------*/
FoamFile
{
    version     2.0;
    format      ascii;
    class       volScalarField;
    location    "0.17";
    object      p;
}
// * * * * * * * * * * * * * * * * * * * * * * * * * * * * * * * * * * * * * //

dimensions      [1 -1 -2 0 0 0 0];

internalField   nonuniform List<scalar> 
1000
(
5e+06
5e+06
5e+06
5e+06
5e+06
5e+06
5e+06
5e+06
5e+06
5e+06
5e+06
5e+06
5e+06
5e+06
5e+06
5e+06
5e+06
5e+06
5e+06
5e+06
5e+06
5e+06
5e+06
5e+06
5e+06
5e+06
5e+06
5e+06
5e+06
5e+06
5e+06
5e+06
5e+06
5e+06
5e+06
5e+06
5e+06
5e+06
5e+06
5e+06
5e+06
5e+06
5e+06
5e+06
5e+06
5e+06
5e+06
5e+06
5e+06
5e+06
5e+06
5e+06
5e+06
5e+06
5e+06
5e+06
5e+06
5e+06
5e+06
5e+06
5e+06
5e+06
5e+06
5e+06
5e+06
5e+06
5e+06
5e+06
5e+06
5e+06
5e+06
5e+06
5e+06
5e+06
5e+06
5e+06
5e+06
5e+06
5e+06
5e+06
5e+06
5e+06
5e+06
5e+06
5e+06
5e+06
5e+06
5e+06
5e+06
5e+06
5e+06
5e+06
5e+06
5e+06
5e+06
5e+06
5e+06
5e+06
5e+06
5e+06
5e+06
5e+06
5e+06
5e+06
5e+06
5e+06
5e+06
5e+06
5e+06
5e+06
5e+06
5e+06
5e+06
5e+06
5e+06
5e+06
5e+06
5e+06
5e+06
5e+06
5e+06
5e+06
5e+06
5e+06
5e+06
5e+06
5e+06
5e+06
5e+06
5e+06
5e+06
5e+06
5e+06
5e+06
5e+06
5e+06
5e+06
5e+06
5e+06
5e+06
5e+06
5e+06
5e+06
5e+06
5e+06
5e+06
5e+06
5e+06
5e+06
5e+06
5e+06
5e+06
5e+06
5e+06
5e+06
5e+06
5e+06
5e+06
5e+06
5e+06
5e+06
5e+06
5e+06
5e+06
5e+06
5e+06
5e+06
5e+06
5e+06
5e+06
5e+06
5e+06
5e+06
5e+06
5e+06
5e+06
5e+06
5e+06
5e+06
5e+06
5e+06
5e+06
5e+06
5e+06
5e+06
5e+06
5e+06
5e+06
5e+06
5e+06
5e+06
5e+06
5e+06
5e+06
5e+06
5e+06
5e+06
5e+06
5e+06
5e+06
5e+06
5e+06
5e+06
5e+06
5e+06
5e+06
5e+06
5e+06
5e+06
5e+06
5e+06
5e+06
5e+06
5e+06
5e+06
5e+06
5e+06
5e+06
5e+06
5e+06
5e+06
5e+06
5e+06
5e+06
5e+06
5e+06
5e+06
5e+06
5e+06
5e+06
5e+06
5e+06
5e+06
5e+06
5e+06
5e+06
5e+06
5e+06
5e+06
5e+06
5e+06
5e+06
5e+06
5e+06
5e+06
5e+06
5e+06
5e+06
5e+06
5e+06
5e+06
5e+06
5e+06
5e+06
5e+06
5e+06
5e+06
5e+06
5e+06
5e+06
5e+06
5e+06
5e+06
5e+06
5e+06
5e+06
5e+06
5e+06
5e+06
5e+06
5e+06
5e+06
5e+06
5e+06
5e+06
5e+06
5e+06
5e+06
5e+06
5e+06
5e+06
5e+06
5e+06
5e+06
5e+06
5e+06
5e+06
5e+06
5e+06
5e+06
5e+06
5e+06
5e+06
5e+06
5e+06
5e+06
5e+06
5e+06
5e+06
5e+06
5e+06
5e+06
5e+06
5e+06
5e+06
5e+06
5e+06
5e+06
5e+06
5e+06
5e+06
5e+06
5e+06
5e+06
5e+06
5e+06
5e+06
5e+06
5e+06
5e+06
5e+06
5e+06
5e+06
5e+06
5e+06
5e+06
5e+06
5e+06
5e+06
5e+06
5e+06
5e+06
5e+06
5e+06
5e+06
5e+06
5e+06
5e+06
5e+06
5e+06
5e+06
5e+06
5e+06
5e+06
5e+06
5e+06
5e+06
5e+06
5e+06
5e+06
5e+06
5e+06
5e+06
5e+06
5e+06
5e+06
5e+06
5e+06
5e+06
5e+06
5e+06
5e+06
5e+06
5e+06
5e+06
5e+06
5e+06
5e+06
5e+06
5e+06
5e+06
5e+06
5e+06
5e+06
5e+06
5e+06
5e+06
5e+06
5e+06
5e+06
5e+06
5e+06
5e+06
5e+06
5e+06
5e+06
5e+06
5e+06
5e+06
5e+06
5e+06
5e+06
5e+06
5e+06
5e+06
5e+06
5e+06
5e+06
5e+06
5e+06
5e+06
5e+06
5e+06
5e+06
5e+06
5e+06
5e+06
5e+06
5e+06
5e+06
5e+06
5e+06
5e+06
5e+06
5e+06
5e+06
5e+06
5e+06
5e+06
5e+06
5e+06
5e+06
5e+06
5e+06
5e+06
5e+06
5e+06
5e+06
5e+06
5e+06
5e+06
5e+06
5e+06
4.99999e+06
4.99999e+06
4.99999e+06
4.99999e+06
4.99998e+06
4.99998e+06
4.99997e+06
4.99996e+06
4.99995e+06
4.99994e+06
4.99993e+06
4.99991e+06
4.99988e+06
4.99986e+06
4.99982e+06
4.99978e+06
4.99973e+06
4.99966e+06
4.99959e+06
4.9995e+06
4.99939e+06
4.99926e+06
4.99911e+06
4.99893e+06
4.99872e+06
4.99847e+06
4.99819e+06
4.99785e+06
4.99747e+06
4.99703e+06
4.99652e+06
4.99595e+06
4.99529e+06
4.99456e+06
4.99372e+06
4.99279e+06
4.99175e+06
4.99059e+06
4.98931e+06
4.9879e+06
4.98634e+06
4.98464e+06
4.98279e+06
4.98077e+06
4.9786e+06
4.97625e+06
4.97373e+06
4.97102e+06
4.96814e+06
4.96508e+06
4.96183e+06
4.9584e+06
4.95478e+06
4.95099e+06
4.94701e+06
4.94285e+06
4.93852e+06
4.93402e+06
4.92935e+06
4.92453e+06
4.91954e+06
4.91441e+06
4.90914e+06
4.90373e+06
4.89819e+06
4.89253e+06
4.88675e+06
4.88086e+06
4.87487e+06
4.86879e+06
4.86261e+06
4.85636e+06
4.85003e+06
4.84363e+06
4.83717e+06
4.83065e+06
4.82408e+06
4.81746e+06
4.8108e+06
4.8041e+06
4.79737e+06
4.79062e+06
4.78383e+06
4.77703e+06
4.77021e+06
4.76338e+06
4.75654e+06
4.74969e+06
4.74283e+06
4.73597e+06
4.7291e+06
4.72224e+06
4.71538e+06
4.70852e+06
4.70166e+06
4.69482e+06
4.68797e+06
4.68114e+06
4.67432e+06
4.6675e+06
4.66069e+06
4.6539e+06
4.64711e+06
4.64034e+06
4.63357e+06
4.62682e+06
4.62008e+06
4.61335e+06
4.60663e+06
4.59993e+06
4.59324e+06
4.58655e+06
4.57988e+06
4.57323e+06
4.56658e+06
4.55995e+06
4.55332e+06
4.54671e+06
4.54011e+06
4.53352e+06
4.52694e+06
4.52038e+06
4.51382e+06
4.50727e+06
4.50074e+06
4.49421e+06
4.4877e+06
4.48119e+06
4.4747e+06
4.46821e+06
4.46174e+06
4.45527e+06
4.44881e+06
4.44236e+06
4.43592e+06
4.42949e+06
4.42307e+06
4.41666e+06
4.41025e+06
4.40385e+06
4.39747e+06
4.39109e+06
4.38471e+06
4.37835e+06
4.37199e+06
4.36564e+06
4.3593e+06
4.35297e+06
4.34664e+06
4.34032e+06
4.33401e+06
4.32771e+06
4.32141e+06
4.31512e+06
4.30884e+06
4.30256e+06
4.29629e+06
4.29002e+06
4.28377e+06
4.27752e+06
4.27127e+06
4.26504e+06
4.25881e+06
4.25258e+06
4.24637e+06
4.24015e+06
4.23395e+06
4.22775e+06
4.22156e+06
4.21537e+06
4.20919e+06
4.20302e+06
4.19685e+06
4.19069e+06
4.18453e+06
4.17838e+06
4.17224e+06
4.1661e+06
4.15996e+06
4.15384e+06
4.14772e+06
4.1416e+06
4.13549e+06
4.12939e+06
4.12329e+06
4.11719e+06
4.1111e+06
4.10502e+06
4.09894e+06
4.09287e+06
4.08681e+06
4.08074e+06
4.07469e+06
4.06864e+06
4.06259e+06
4.05655e+06
4.05051e+06
4.04448e+06
4.03845e+06
4.03243e+06
4.02641e+06
4.0204e+06
4.01439e+06
4.00838e+06
4.00238e+06
3.99639e+06
3.99039e+06
3.98441e+06
3.97842e+06
3.97244e+06
3.96647e+06
3.96049e+06
3.95453e+06
3.94856e+06
3.9426e+06
3.93665e+06
3.93069e+06
3.92474e+06
3.9188e+06
3.91285e+06
3.90691e+06
3.90098e+06
3.89504e+06
3.88911e+06
3.88319e+06
3.87726e+06
3.87134e+06
3.86543e+06
3.85951e+06
3.8536e+06
3.84769e+06
3.84178e+06
3.83588e+06
3.82998e+06
3.82408e+06
3.81818e+06
3.81229e+06
3.8064e+06
3.80051e+06
3.79463e+06
3.78874e+06
3.78286e+06
3.77698e+06
3.7711e+06
3.76523e+06
3.75936e+06
3.75348e+06
3.74761e+06
3.74175e+06
3.73588e+06
3.73002e+06
3.72416e+06
3.7183e+06
3.71244e+06
3.70658e+06
3.70073e+06
3.69487e+06
3.68902e+06
3.68317e+06
3.67732e+06
3.67147e+06
3.66562e+06
3.65977e+06
3.65393e+06
3.64808e+06
3.64224e+06
3.63639e+06
3.63055e+06
3.62471e+06
3.61887e+06
3.61303e+06
3.60719e+06
3.60135e+06
3.59551e+06
3.58967e+06
3.58383e+06
3.57799e+06
3.57215e+06
3.56631e+06
3.56047e+06
3.55463e+06
3.54879e+06
3.54295e+06
3.53711e+06
3.53127e+06
3.52543e+06
3.51959e+06
3.51375e+06
3.5079e+06
3.50206e+06
3.49621e+06
3.49037e+06
3.48452e+06
3.47867e+06
3.47282e+06
3.46697e+06
3.46112e+06
3.45527e+06
3.44941e+06
3.44355e+06
3.43769e+06
3.43183e+06
3.42597e+06
3.42011e+06
3.41424e+06
3.40837e+06
3.4025e+06
3.39663e+06
3.39075e+06
3.38487e+06
3.37899e+06
3.37311e+06
3.36722e+06
3.36133e+06
3.35544e+06
3.34954e+06
3.34364e+06
3.33774e+06
3.33183e+06
3.32592e+06
3.32001e+06
3.31409e+06
3.30817e+06
3.30224e+06
3.29631e+06
3.29038e+06
3.28444e+06
3.27849e+06
3.27254e+06
3.26659e+06
3.26063e+06
3.25466e+06
3.24869e+06
3.24272e+06
3.23674e+06
3.23075e+06
3.22476e+06
3.21875e+06
3.21275e+06
3.20673e+06
3.20071e+06
3.19469e+06
3.18865e+06
3.18262e+06
3.17657e+06
3.17053e+06
3.16447e+06
3.1584e+06
3.15232e+06
3.14623e+06
3.14013e+06
3.13403e+06
3.12792e+06
3.12179e+06
3.11566e+06
3.10952e+06
3.10337e+06
3.0972e+06
3.09103e+06
3.08485e+06
3.07866e+06
3.07245e+06
3.06624e+06
3.06001e+06
3.05377e+06
3.04752e+06
3.04125e+06
3.03498e+06
3.02869e+06
3.02239e+06
3.01608e+06
3.00975e+06
3.0034e+06
2.99704e+06
2.99066e+06
2.98428e+06
2.97786e+06
2.97144e+06
2.965e+06
2.95855e+06
2.95208e+06
2.94559e+06
2.93908e+06
2.93255e+06
2.92601e+06
2.91944e+06
2.91286e+06
2.90625e+06
2.89963e+06
2.89298e+06
2.88631e+06
2.87962e+06
2.8729e+06
2.86616e+06
2.8594e+06
2.85261e+06
2.84579e+06
2.83895e+06
2.83208e+06
2.82518e+06
2.81825e+06
2.8113e+06
2.80431e+06
2.79729e+06
2.79024e+06
2.78316e+06
2.77604e+06
2.76889e+06
2.7617e+06
2.75448e+06
2.74721e+06
2.73991e+06
2.73257e+06
2.72518e+06
2.71775e+06
2.71028e+06
2.70276e+06
2.69519e+06
2.68758e+06
2.67992e+06
2.6722e+06
2.66443e+06
2.6566e+06
2.64872e+06
2.64077e+06
2.63276e+06
2.62469e+06
2.61655e+06
2.60834e+06
2.60006e+06
2.5917e+06
2.58326e+06
2.57474e+06
2.56613e+06
2.55744e+06
2.54864e+06
2.53975e+06
2.53076e+06
2.52166e+06
2.51244e+06
2.5031e+06
2.49363e+06
2.48403e+06
2.47427e+06
2.46437e+06
2.4543e+06
2.44406e+06
2.43363e+06
2.42301e+06
2.41218e+06
2.40111e+06
2.38981e+06
2.37823e+06
2.36638e+06
2.35423e+06
2.34176e+06
2.32895e+06
2.31578e+06
2.30222e+06
2.28826e+06
2.27388e+06
2.25908e+06
2.24386e+06
2.22823e+06
2.21223e+06
2.19592e+06
2.17941e+06
2.16285e+06
2.14659e+06
2.13105e+06
2.11643e+06
2.10277e+06
2.09003e+06
2.0781e+06
2.0668e+06
2.05596e+06
2.04541e+06
2.03499e+06
2.02458e+06
2.01408e+06
2.00342e+06
1.99256e+06
1.9815e+06
1.97024e+06
1.95879e+06
1.94721e+06
1.93551e+06
1.92375e+06
1.91193e+06
1.90011e+06
1.88828e+06
1.87647e+06
1.86468e+06
1.8529e+06
1.84115e+06
1.8294e+06
1.81767e+06
1.80593e+06
1.7942e+06
1.78244e+06
1.77067e+06
1.75889e+06
1.74709e+06
1.73527e+06
1.72344e+06
1.7116e+06
1.69974e+06
1.68788e+06
1.676e+06
1.66413e+06
1.65226e+06
1.64039e+06
1.62853e+06
1.61666e+06
1.6048e+06
1.59293e+06
1.58107e+06
1.56921e+06
1.55735e+06
1.54548e+06
1.53365e+06
1.52181e+06
1.50994e+06
1.4981e+06
1.48626e+06
1.47441e+06
1.46256e+06
1.45072e+06
1.43889e+06
1.42705e+06
1.41522e+06
1.40339e+06
1.39158e+06
1.37976e+06
1.36795e+06
1.35614e+06
1.34434e+06
1.33255e+06
1.32077e+06
1.30899e+06
1.29721e+06
1.28546e+06
1.27372e+06
1.26201e+06
1.25029e+06
1.23859e+06
1.2269e+06
1.21529e+06
1.20368e+06
1.19202e+06
1.18032e+06
1.16877e+06
1.15743e+06
1.14596e+06
1.13437e+06
1.12284e+06
1.11155e+06
1.10044e+06
1.08926e+06
1.078e+06
1.0668e+06
1.05569e+06
1.04427e+06
1.0312e+06
1.0212e+06
1.031e+06
1.04052e+06
)
;

boundaryField
{
    sideLeft
    {
        type            symmetryPlane;
    }
    sideRight
    {
        type            myWaveTransmissive;
        phi             phi.air;
        rho             rho.air;
        psi             thermo:psi.air;
        gamma           1.4;
        fieldInf        100000;
        lInf            10;
        value           uniform 1.03955e+06;
    }
    topbottom
    {
        type            empty;
    }
    frontback
    {
        type            empty;
    }
}


// ************************************************************************* //
