/*--------------------------------*- C++ -*----------------------------------*\
| =========                 |                                                 |
| \\      /  F ield         | OpenFOAM: The Open Source CFD Toolbox           |
|  \\    /   O peration     | Version:  2.4.0                                 |
|   \\  /    A nd           | Web:      www.OpenFOAM.org                      |
|    \\/     M anipulation  |                                                 |
\*---------------------------------------------------------------------------*/
FoamFile
{
    version     2.0;
    format      ascii;
    class       surfaceScalarField;
    location    "0.17";
    object      phi.air;
}
// * * * * * * * * * * * * * * * * * * * * * * * * * * * * * * * * * * * * * //

dimensions      [0 3 -1 0 0 0 0];

internalField   nonuniform List<scalar> 
999
(
-8.88315e-13
-1.05147e-12
-1.59916e-12
-1.83331e-12
-2.217e-12
-2.4334e-12
-1.81524e-12
-1.93802e-12
-1.69531e-12
-1.76468e-12
-2.03662e-12
-1.54865e-12
-3.52186e-12
-2.94589e-12
-3.75921e-12
-5.00163e-12
-5.34795e-12
-4.42876e-12
-4.52605e-12
-3.55971e-12
-2.90168e-12
-2.08367e-12
-2.26545e-12
-2.98139e-12
-2.86027e-12
-1.77822e-12
-1.59326e-12
-6.51295e-13
2.13163e-13
-3.42803e-13
-8.33735e-14
-4.29676e-13
-2.13162e-13
-1.28491e-12
-1.44748e-12
-3.23816e-12
-2.38523e-12
-1.35416e-12
-1.06726e-12
-1.20962e-12
-1.10583e-12
-4.2632e-14
4.61791e-13
-2.55795e-13
-1.2716e-12
-8.06112e-13
5.29985e-14
9.31588e-13
1.75333e-12
1.27365e-12
1.56752e-12
2.17935e-12
1.95341e-12
2.33394e-12
2.10065e-12
1.31851e-12
1.37061e-12
1.59158e-12
1.0713e-12
1.60329e-12
1.22109e-12
2.33013e-12
1.68206e-12
3.22111e-12
3.54404e-12
2.43099e-12
1.82176e-12
2.64258e-12
2.65514e-12
3.29187e-12
3.26232e-12
4.51933e-12
6.19365e-12
5.60236e-12
5.78658e-12
5.6111e-12
3.79225e-12
3.5598e-12
3.71728e-12
3.75736e-12
4.81464e-12
3.90193e-12
4.93533e-12
3.74958e-12
3.63103e-12
3.94155e-12
3.0573e-12
3.27679e-12
2.13659e-12
1.8048e-12
2.1488e-12
9.81841e-13
1.85591e-12
1.27798e-12
4.65361e-13
7.11629e-13
5.18121e-13
7.55456e-13
1.15916e-12
2.67935e-13
8.62389e-13
1.4563e-12
6.84577e-13
6.35273e-13
-8.57609e-14
-1.03508e-12
-1.35934e-12
-2.29747e-12
-2.5586e-12
-3.44601e-12
-3.71302e-12
-3.72316e-12
-4.4457e-12
-5.49692e-12
-4.03917e-12
-2.89502e-12
-2.94552e-12
-1.94273e-12
-1.7842e-12
-9.37916e-13
-4.64564e-13
7.25888e-13
1.29238e-12
1.40412e-12
1.16625e-12
2.34179e-12
1.59594e-12
1.66029e-12
1.73591e-12
8.09819e-13
9.15826e-13
1.0636e-12
2.47319e-12
1.43129e-12
8.79418e-13
1.65883e-12
2.36607e-12
4.3649e-13
-4.26219e-13
-7.22149e-13
2.30996e-13
4.63951e-13
1.1858e-12
7.13436e-13
2.06526e-12
1.32599e-12
1.34821e-12
1.68151e-12
5.06959e-13
8.44976e-13
5.53372e-13
3.73703e-13
4.71849e-13
-2.96163e-13
-6.66404e-13
-4.50292e-13
-5.11265e-13
-7.1952e-13
-5.47024e-13
-4.83168e-13
7.53175e-13
2.07424e-12
1.47701e-12
3.31622e-13
-9.12089e-13
-2.07439e-12
-1.35516e-12
-1.43509e-12
-8.03959e-13
1.65617e-13
-9.92701e-13
1.84741e-13
-1.39748e-13
1.26937e-13
9.39986e-13
1.50356e-12
7.81597e-13
1.33076e-12
1.35333e-12
1.1196e-12
1.64118e-12
2.64969e-12
4.43285e-12
4.35749e-12
4.36977e-12
4.02442e-12
3.36431e-12
3.01308e-12
2.64515e-12
3.74395e-12
4.01812e-12
5.95745e-12
3.59713e-12
4.22313e-12
4.61888e-12
3.09722e-12
3.11308e-12
2.45793e-12
2.0586e-12
1.51054e-12
1.46779e-12
2.13371e-12
1.66016e-12
1.5486e-12
1.64759e-12
1.07291e-12
1.8574e-12
2.74884e-12
2.6561e-12
1.72808e-12
7.08567e-13
4.89846e-13
4.62343e-13
1.32758e-12
5.40013e-13
1.37132e-12
1.1569e-12
7.47048e-13
7.68179e-13
1.50542e-12
6.58461e-13
9.13119e-13
1.02146e-12
2.18146e-12
1.85417e-12
9.94748e-14
-7.72725e-13
-4.42578e-13
-1.56445e-12
-1.54774e-12
-1.78111e-12
-2.21437e-12
-1.27239e-12
-1.74241e-12
-4.12682e-13
1.15001e-12
1.92512e-12
2.51578e-12
3.25184e-12
4.43172e-12
3.18301e-12
4.21983e-12
4.21001e-12
4.8207e-12
4.8689e-12
6.37449e-12
7.05833e-12
7.79631e-12
7.57936e-12
6.98283e-12
7.27322e-12
8.86236e-12
8.80045e-12
8.02477e-12
6.54062e-12
5.12262e-12
4.96269e-12
4.16058e-12
3.06425e-12
4.15177e-12
2.67651e-12
1.97561e-12
3.18612e-12
2.52996e-12
2.30502e-12
2.19372e-12
1.70549e-12
2.25539e-12
3.9136e-12
3.5492e-12
4.37766e-12
4.01877e-12
3.20009e-12
2.82879e-12
2.0835e-12
1.80977e-12
2.38618e-12
1.7485e-12
1.86559e-12
3.82609e-13
-1.09373e-14
2.07279e-12
2.92138e-12
3.66704e-12
3.62985e-12
3.07049e-12
2.25459e-12
2.32916e-12
1.92446e-12
1.40131e-12
1.3796e-12
1.23851e-12
-3.5527e-13
2.94348e-13
2.42179e-12
2.9007e-12
2.37654e-12
2.24111e-12
3.89833e-12
4.30067e-12
4.22359e-12
3.62145e-12
3.83391e-12
3.26372e-12
2.31177e-12
2.04202e-12
2.50222e-12
3.04398e-12
1.68606e-12
2.32728e-12
2.1922e-12
2.01056e-12
2.16151e-12
1.74172e-12
9.96915e-13
6.58381e-13
1.10933e-12
2.19601e-12
2.16166e-12
3.037e-12
4.02576e-12
2.95308e-12
2.26299e-12
4.46635e-12
3.44959e-12
1.62623e-12
1.20875e-12
-8.78803e-14
-3.89733e-13
-6.03385e-13
-2.41586e-13
-1.42108e-13
-2.70007e-13
-1.4076e-12
-1.02436e-12
-1.67741e-13
-1.39551e-12
-2.25407e-12
-3.21715e-12
-2.32903e-12
-2.19098e-12
-1.41556e-12
-4.26317e-14
4.36977e-13
4.84851e-13
7.60448e-13
1.0143e-12
1.24966e-12
1.19039e-12
1.26222e-12
1.00244e-13
5.69421e-13
1.4211e-13
4.84592e-13
3.25662e-13
-1.15818e-12
-4.27894e-13
-8.16066e-13
-2.30592e-12
-2.23381e-12
-2.92953e-12
-3.41729e-12
-2.10568e-12
-1.31278e-12
-1.09041e-12
-2.25049e-12
-2.34103e-12
-1.91551e-12
-4.53765e-12
-3.97797e-12
-3.73002e-12
-3.33285e-12
-2.292e-12
5.48772e-13
2.3602e-12
4.65251e-12
6.74669e-12
9.69425e-12
1.13745e-11
1.30107e-11
1.77065e-11
2.60274e-11
3.77167e-11
5.44776e-11
7.8742e-11
1.16924e-10
1.70183e-10
2.52171e-10
3.71562e-10
5.51159e-10
8.16388e-10
1.20778e-09
1.78446e-09
2.62921e-09
3.86704e-09
5.671e-09
8.29435e-09
1.20978e-08
1.75979e-08
2.55268e-08
3.69201e-08
5.32432e-08
7.65565e-08
1.09756e-07
1.56884e-07
2.2358e-07
3.17681e-07
4.50032e-07
6.35595e-07
8.94944e-07
1.25628e-06
1.75809e-06
2.45277e-06
3.41135e-06
4.72981e-06
6.53733e-06
9.00722e-06
1.23711e-05
1.69374e-05
2.31151e-05
3.14451e-05
4.26392e-05
5.76313e-05
7.76412e-05
0.000104257
0.000139537
0.000186138
0.00024748
0.00032794
0.000433103
0.000570063
0.000747795
0.000977604
0.00127367
0.0016537
0.00213971
0.00275895
0.00354501
0.00453907
0.00579144
0.00736321
0.00932832
0.0117757
0.0148119
0.0185639
0.0231822
0.0288443
0.0357586
0.0441679
0.0543546
0.066644
0.08141
0.0990786
0.120134
0.14512
0.174648
0.209399
0.250123
0.297649
0.352878
0.416788
0.490432
0.574934
0.671486
0.781345
0.905818
1.04626
1.20407
1.38066
1.57744
1.79586
2.03731
2.30316
2.59474
2.91331
3.26004
3.63602
4.04225
4.47957
4.94874
5.45036
5.98491
6.55269
7.1539
7.78857
8.4566
9.15775
9.89163
10.6577
11.4555
12.2841
13.1429
14.0307
14.9468
15.8901
16.8594
17.8536
18.8715
19.912
20.9738
22.0557
23.1566
24.2752
25.4104
26.561
27.7259
28.904
30.0943
31.2957
32.5074
33.7283
34.9577
36.1946
37.4384
38.6883
39.9436
41.2036
42.4679
43.7358
45.0068
46.2805
47.5565
48.8343
50.1137
51.3942
52.6757
53.9578
55.2403
56.5231
57.806
59.0887
60.3712
61.6533
62.9349
64.2161
65.4966
66.7764
68.0555
69.3338
70.6114
71.8881
73.164
74.4391
75.7134
76.9868
78.2594
79.5313
80.8023
82.0725
83.3421
84.6108
85.8789
87.1463
88.413
89.6791
90.9446
92.2096
93.4739
94.7378
96.0012
97.2641
98.5266
99.7886
101.05
102.312
103.573
104.833
106.094
107.354
108.614
109.874
111.133
112.393
113.652
114.911
116.171
117.43
118.689
119.948
121.207
122.466
123.725
124.984
126.243
127.502
128.762
130.021
131.281
132.541
133.801
135.061
136.321
137.581
138.842
140.103
141.364
142.626
143.887
145.149
146.411
147.674
148.937
150.2
151.463
152.727
153.991
155.255
156.52
157.785
159.05
160.316
161.582
162.849
164.116
165.383
166.651
167.919
169.188
170.457
171.727
172.997
174.268
175.539
176.81
178.082
179.355
180.629
181.902
183.177
184.452
185.728
187.004
188.281
189.559
190.837
192.116
193.396
194.677
195.958
197.24
198.523
199.806
201.091
202.376
203.662
204.949
206.237
207.526
208.815
210.106
211.398
212.69
213.984
215.278
216.573
217.87
219.167
220.466
221.766
223.066
224.368
225.671
226.975
228.28
229.587
230.894
232.203
233.513
234.824
236.136
237.449
238.764
240.08
241.398
242.716
244.036
245.358
246.68
248.004
249.33
250.656
251.985
253.314
254.645
255.978
257.312
258.648
259.985
261.323
262.663
264.005
265.349
266.693
268.04
269.388
270.738
272.09
273.443
274.798
276.155
277.514
278.874
280.236
281.6
282.966
284.334
285.704
287.076
288.449
289.825
291.203
292.582
293.964
295.348
296.734
298.122
299.512
300.904
302.299
303.696
305.095
306.496
307.899
309.305
310.714
312.124
313.538
314.953
316.371
317.792
319.215
320.64
322.068
323.499
324.933
326.369
327.808
329.249
330.694
332.141
333.591
335.044
336.5
337.959
339.421
340.886
342.354
343.825
345.299
346.776
348.257
349.741
351.228
352.719
354.213
355.711
357.212
358.716
360.224
361.736
363.252
364.771
366.294
367.821
369.352
370.887
372.426
373.969
375.516
377.067
378.623
380.183
381.747
383.316
384.889
386.466
388.048
389.634
391.223
392.818
394.421
396.029
397.64
399.256
400.878
402.505
404.138
405.776
407.42
409.068
410.724
412.384
414.051
415.723
417.402
419.087
420.779
422.476
424.18
425.89
427.607
429.33
431.061
432.799
434.545
436.299
438.06
439.828
441.604
443.388
445.18
446.98
448.789
450.606
452.431
454.265
456.109
457.962
459.824
461.695
463.576
465.467
467.369
469.281
471.204
473.137
475.082
477.038
479.006
480.986
482.978
484.982
487
489.03
491.074
493.131
495.202
497.288
499.389
501.504
503.636
505.783
507.947
510.127
512.325
514.54
516.775
519.027
521.3
523.591
525.904
528.237
530.592
532.97
535.371
537.796
540.247
542.722
545.225
547.755
550.315
552.903
555.523
558.174
560.861
563.58
566.338
569.131
571.966
574.841
577.761
580.725
583.74
586.803
589.924
593.098
596.337
599.636
603.006
606.445
609.965
613.564
617.256
621.039
624.931
628.928
633.05
637.294
641.682
646.211
650.907
655.767
660.818
666.052
671.498
677.14
683
689.051
695.293
701.4
706.646
711.482
716.081
720.395
724.41
728.145
731.635
734.935
738.095
741.173
744.209
747.247
750.311
753.424
756.595
759.826
763.114
766.448
769.819
773.213
776.62
780.026
783.427
786.813
790.183
793.533
796.866
800.18
803.477
806.762
810.033
813.296
816.551
819.8
823.041
826.275
829.504
832.723
835.937
839.139
842.335
845.515
848.685
851.836
854.976
858.1
861.213
864.309
867.393
870.458
873.512
876.545
879.562
882.584
885.553
888.542
891.495
894.46
897.376
900.311
903.195
906.099
908.951
911.824
914.638
917.473
920.255
923.061
925.807
928.573
931.278
934.01
936.683
939.384
942.007
944.642
947.212
949.825
952.359
954.891
957.323
959.817
962.334
964.831
967.066
969.294
971.622
974.09
976.308
978.324
980.219
982.322
984.388
986.425
988.465
992.121
993.924
985.192
979.259
)
;

boundaryField
{
    sideLeft
    {
        type            symmetryPlane;
        value           uniform 0;
    }
    sideRight
    {
        type            calculated;
        value           uniform 981.097;
    }
    topbottom
    {
        type            empty;
        value           nonuniform 0();
    }
    frontback
    {
        type            empty;
        value           nonuniform 0();
    }
}


// ************************************************************************* //
