/*--------------------------------*- C++ -*----------------------------------*\
| =========                 |                                                 |
| \\      /  F ield         | OpenFOAM: The Open Source CFD Toolbox           |
|  \\    /   O peration     | Version:  2.4.0                                 |
|   \\  /    A nd           | Web:      www.OpenFOAM.org                      |
|    \\/     M anipulation  |                                                 |
\*---------------------------------------------------------------------------*/
FoamFile
{
    version     2.0;
    format      ascii;
    class       surfaceScalarField;
    location    "0.17";
    object      phi.water;
}
// * * * * * * * * * * * * * * * * * * * * * * * * * * * * * * * * * * * * * //

dimensions      [0 3 -1 0 0 0 0];

internalField   nonuniform List<scalar> 
999
(
-1.39991e-12
-9.37781e-13
-1.54232e-12
-1.89015e-12
-2.27384e-12
-2.4334e-12
-1.87208e-12
-2.0517e-12
-1.58162e-12
-1.87836e-12
-1.92293e-12
-1.4918e-12
-2.95343e-12
-3.7417e-12
-4.10027e-12
-4.37635e-12
-5.34795e-12
-4.4856e-12
-4.58289e-12
-3.6734e-12
-2.61747e-12
-2.2542e-12
-2.03808e-12
-2.81086e-12
-3.48555e-12
-1.38032e-12
-1.70694e-12
-6.51295e-13
4.40536e-13
-7.40707e-13
-1.40217e-13
-4.8652e-13
-3.26849e-13
-1.17123e-12
-9.9273e-13
-3.23816e-12
-2.32839e-12
-1.52469e-12
-1.29463e-12
-7.54874e-13
-1.56058e-12
1.27898e-13
3.48104e-13
-2.84218e-14
-1.21476e-12
-9.19798e-13
1.66685e-13
8.17902e-13
2.03755e-12
9.8943e-13
1.56752e-12
2.23619e-12
1.95341e-12
2.39078e-12
1.75959e-12
1.26167e-12
1.82536e-12
1.36421e-12
1.41236e-12
1.31908e-12
1.33478e-12
2.10276e-12
2.19365e-12
3.05058e-12
2.74823e-12
2.88573e-12
2.3902e-12
2.0173e-12
2.54145e-12
3.34871e-12
3.4897e-12
4.46249e-12
5.90944e-12
6.11395e-12
5.55921e-12
5.21319e-12
4.19016e-12
3.67349e-12
3.54675e-12
3.52999e-12
4.98517e-12
3.78824e-12
4.99217e-12
3.80642e-12
3.57419e-12
4.05524e-12
3.22783e-12
2.7652e-12
1.96606e-12
2.2027e-12
1.80774e-12
1.26606e-12
1.5717e-12
1.73273e-12
4.65361e-13
4.84255e-13
2.90747e-13
9.25986e-13
7.61258e-13
6.65839e-13
1.03292e-12
8.87863e-13
1.19617e-12
8.05804e-13
-1.99448e-13
-1.37614e-12
-1.07513e-12
-2.41116e-12
-2.61544e-12
-3.27548e-12
-3.99724e-12
-3.72316e-12
-4.38886e-12
-5.26955e-12
-4.26655e-12
-2.95186e-12
-3.05921e-12
-1.7722e-12
-1.49999e-12
-1.0516e-12
-4.07721e-13
4.98515e-13
1.34922e-12
1.68833e-12
1.16625e-12
1.8302e-12
1.82331e-12
1.60345e-12
2.19066e-12
8.09819e-13
5.74766e-13
1.12044e-12
2.13213e-12
1.43129e-12
1.27732e-12
1.4883e-12
1.85448e-12
1.06177e-12
-1.0515e-12
-4.37932e-13
4.01526e-13
5.20794e-13
1.07211e-12
1.11134e-12
1.89473e-12
1.15546e-12
1.23453e-12
1.7952e-12
3.36428e-13
7.31289e-13
9.51276e-13
4.30547e-13
4.15005e-13
-6.94067e-13
-6.66404e-13
-3.36606e-13
-4.54422e-13
-6.05833e-13
-6.03868e-13
-4.26325e-13
6.39489e-13
2.30161e-12
1.0791e-12
2.74779e-13
-6.84716e-13
-1.9607e-12
-1.29831e-12
-1.26455e-12
-1.03133e-12
2.2246e-13
-9.92701e-13
-4.26323e-14
1.44469e-13
1.26937e-13
1.16736e-12
1.50356e-12
3.2685e-13
1.72866e-12
1.46702e-12
9.49069e-13
1.52749e-12
2.70653e-12
4.54654e-12
4.41434e-12
3.80134e-12
4.87707e-12
2.85272e-12
2.95623e-12
2.41777e-12
4.02817e-12
4.41602e-12
5.16164e-12
4.22241e-12
4.16629e-12
4.67573e-12
2.813e-12
3.28361e-12
2.62846e-12
1.88807e-12
2.13582e-12
8.42514e-13
2.02003e-12
1.77385e-12
1.49176e-12
1.70443e-12
1.24344e-12
1.34581e-12
3.14674e-12
2.59926e-12
1.78493e-12
7.08567e-13
4.89846e-13
4.055e-13
1.27073e-12
7.67386e-13
1.54185e-12
8.15844e-13
9.17578e-13
9.38709e-13
1.33489e-12
7.15304e-13
7.99432e-13
1.30568e-12
2.06778e-12
1.85417e-12
9.94748e-14
-8.29569e-13
-5.56265e-13
-1.56445e-12
-1.54774e-12
-1.78111e-12
-1.81647e-12
-1.84082e-12
-1.62872e-12
-4.12682e-13
9.2264e-13
2.37987e-12
1.8905e-12
3.87712e-12
3.97697e-12
3.58091e-12
3.99245e-12
3.81211e-12
5.33229e-12
4.64153e-12
6.65871e-12
6.8878e-12
7.96684e-12
7.69305e-12
6.75545e-12
7.44375e-12
8.23708e-12
9.53941e-12
7.96793e-12
6.65431e-12
5.35e-12
4.96269e-12
3.87636e-12
2.89372e-12
3.9244e-12
2.7902e-12
2.31668e-12
2.56084e-12
2.92787e-12
2.36187e-12
1.96635e-12
1.53496e-12
2.71014e-12
4.19781e-12
3.5492e-12
4.32081e-12
4.1893e-12
2.74534e-12
2.99932e-12
2.14034e-12
1.75293e-12
2.27249e-12
1.86219e-12
1.46769e-12
6.09983e-13
5.00653e-13
2.12963e-12
2.40979e-12
3.78073e-12
3.62985e-12
3.01365e-12
2.1409e-12
2.55653e-12
1.9813e-12
1.40131e-12
1.3796e-12
1.01113e-12
-2.98427e-13
6.92252e-13
2.3081e-12
2.95754e-12
2.26285e-12
2.29795e-12
3.55727e-12
4.58489e-12
3.88253e-12
4.07619e-12
3.72022e-12
2.86581e-12
2.53914e-12
1.98518e-12
2.50222e-12
3.21451e-12
1.97028e-12
2.32728e-12
2.13536e-12
1.6695e-12
2.04783e-12
1.85541e-12
1.1106e-12
6.58381e-13
9.38798e-13
2.42338e-12
2.27535e-12
2.75279e-12
4.02576e-12
2.49833e-12
2.5472e-12
4.80741e-12
3.39275e-12
1.73992e-12
1.09506e-12
-3.15254e-13
-6.7395e-13
-2.05481e-13
-2.41586e-13
-3.12638e-13
-3.83694e-13
-1.52129e-12
-3.42241e-13
-2.81428e-13
-1.33867e-12
-2.0267e-12
-3.44453e-12
-2.32903e-12
-2.30467e-12
-1.41556e-12
7.10552e-14
2.66446e-13
5.98538e-13
7.60448e-13
9.57456e-13
1.3065e-12
9.06169e-13
1.20537e-12
2.70775e-13
2.85204e-13
3.69483e-13
6.55123e-13
2.11975e-13
-9.3081e-13
-5.41581e-13
-8.16066e-13
-1.96486e-12
-2.57487e-12
-2.98637e-12
-3.47413e-12
-2.21937e-12
-1.14225e-12
-1.14725e-12
-2.02312e-12
-2.28419e-12
-2.48394e-12
-4.36712e-12
-3.7506e-12
-3.90055e-12
-3.33285e-12
-2.00778e-12
-7.65053e-14
2.7581e-12
4.65251e-12
7.08775e-12
9.69425e-12
1.11471e-11
1.25559e-11
1.78202e-11
2.60274e-11
3.7262e-11
5.43639e-11
7.90262e-11
1.16072e-10
1.69899e-10
2.51432e-10
3.70482e-10
5.49965e-10
8.14341e-10
1.20483e-09
1.7794e-09
2.62273e-09
3.85675e-09
5.65747e-09
8.27372e-09
1.20681e-08
1.7556e-08
2.54667e-08
3.68347e-08
5.31228e-08
7.63854e-08
1.09515e-07
1.56545e-07
2.23106e-07
3.17019e-07
4.49111e-07
6.34318e-07
8.9318e-07
1.25385e-06
1.75475e-06
2.44821e-06
3.40513e-06
4.72134e-06
6.52586e-06
8.99174e-06
1.23503e-05
1.69095e-05
2.30779e-05
3.13955e-05
4.25735e-05
5.75444e-05
7.75268e-05
0.000104107
0.00013934
0.000185883
0.000247149
0.000327512
0.000432552
0.000569356
0.000746892
0.000976455
0.00127221
0.00165186
0.0021374
0.00275605
0.0035414
0.00453459
0.00578589
0.00735638
0.00931994
0.0117655
0.0147995
0.0185489
0.0231641
0.0288225
0.0357325
0.044137
0.054318
0.0666009
0.0813594
0.0990197
0.120065
0.145041
0.174557
0.209295
0.250005
0.297515
0.352727
0.416618
0.490243
0.574724
0.671255
0.781091
0.905542
1.04596
1.20375
1.38031
1.57707
1.79547
2.03689
2.30273
2.59429
2.91283
3.25955
3.63552
4.04173
4.47905
4.94822
5.44984
5.98438
6.55217
7.15338
7.78807
8.45611
9.15726
9.89116
10.6573
11.4551
12.2837
13.1425
14.0304
14.9465
15.8898
16.8591
17.8533
18.8713
19.9118
20.9736
22.0556
23.1565
24.2751
25.4103
26.5609
27.7258
28.904
30.0943
31.2957
32.5074
33.7284
34.9578
36.1947
37.4385
38.6884
39.9437
41.2038
42.468
43.7359
45.007
46.2807
47.5566
48.8345
50.1138
51.3944
52.6758
53.958
55.2405
56.5233
57.8061
59.0888
60.3713
61.6534
62.9351
64.2162
65.4967
66.7765
68.0556
69.334
70.6115
71.8883
73.1642
74.4393
75.7135
76.987
78.2596
79.5314
80.8024
82.0727
83.3422
84.611
85.879
87.1464
88.4132
89.6793
90.9448
92.2097
93.4741
94.7379
96.0013
97.2642
98.5267
99.7888
101.05
102.312
103.573
104.833
106.094
107.354
108.614
109.874
111.133
112.393
113.652
114.911
116.171
117.43
118.689
119.948
121.207
122.466
123.725
124.984
126.243
127.502
128.762
130.021
131.281
132.541
133.801
135.061
136.321
137.582
138.842
140.103
141.364
142.626
143.887
145.149
146.411
147.674
148.937
150.2
151.463
152.727
153.991
155.255
156.52
157.785
159.05
160.316
161.582
162.849
164.116
165.383
166.651
167.919
169.188
170.457
171.727
172.997
174.268
175.539
176.81
178.083
179.355
180.629
181.903
183.177
184.452
185.728
187.004
188.281
189.559
190.837
192.116
193.396
194.677
195.958
197.24
198.523
199.806
201.091
202.376
203.662
204.949
206.237
207.526
208.816
210.106
211.398
212.69
213.984
215.278
216.574
217.87
219.168
220.466
221.766
223.066
224.368
225.671
226.975
228.28
229.587
230.894
232.203
233.513
234.824
236.136
237.45
238.764
240.08
241.398
242.716
244.036
245.358
246.68
248.004
249.33
250.657
251.985
253.314
254.645
255.978
257.312
258.648
259.985
261.323
262.663
264.005
265.349
266.694
268.04
269.388
270.738
272.09
273.443
274.798
276.155
277.514
278.874
280.236
281.6
282.966
284.334
285.704
287.076
288.449
289.825
291.203
292.582
293.964
295.348
296.734
298.122
299.512
300.904
302.299
303.696
305.095
306.496
307.9
309.305
310.714
312.124
313.538
314.953
316.371
317.792
319.215
320.64
322.068
323.499
324.933
326.369
327.808
329.249
330.694
332.141
333.591
335.044
336.5
337.959
339.421
340.886
342.354
343.825
345.299
346.776
348.257
349.741
351.228
352.719
354.213
355.711
357.212
358.716
360.224
361.736
363.252
364.771
366.294
367.821
369.353
370.887
372.426
373.969
375.516
377.067
378.623
380.183
381.747
383.316
384.889
386.466
388.048
389.634
391.223
392.818
394.421
396.029
397.64
399.256
400.878
402.505
404.138
405.776
407.42
409.069
410.724
412.384
414.051
415.723
417.402
419.087
420.779
422.476
424.18
425.89
427.607
429.33
431.061
432.799
434.545
436.299
438.06
439.828
441.604
443.388
445.18
446.98
448.789
450.606
452.431
454.266
456.109
457.962
459.824
461.695
463.576
465.468
467.369
469.281
471.204
473.137
475.082
477.038
479.006
480.986
482.978
484.982
487
489.03
491.074
493.131
495.202
497.288
499.389
501.504
503.636
505.783
507.947
510.127
512.325
514.54
516.775
519.027
521.3
523.591
525.904
528.237
530.593
532.97
535.371
537.796
540.247
542.722
545.225
547.755
550.315
552.903
555.523
558.174
560.86
563.58
566.337
569.131
571.966
574.841
577.761
580.725
583.74
586.803
589.924
593.099
596.337
599.636
603.006
606.445
609.965
613.564
617.256
621.039
624.931
628.928
633.05
637.294
641.682
646.211
650.907
655.766
660.818
666.052
671.498
677.14
683
689.051
695.293
701.399
706.646
711.482
716.081
720.395
724.41
728.145
731.635
734.935
738.095
741.173
744.209
747.247
750.311
753.424
756.595
759.826
763.114
766.448
769.819
773.213
776.62
780.026
783.427
786.813
790.183
793.533
796.866
800.18
803.477
806.762
810.033
813.296
816.551
819.8
823.041
826.275
829.504
832.723
835.937
839.139
842.336
845.515
848.685
851.836
854.976
858.1
861.212
864.309
867.393
870.458
873.512
876.545
879.562
882.583
885.554
888.542
891.495
894.46
897.376
900.31
903.195
906.098
908.951
911.823
914.638
917.471
920.256
923.059
925.808
928.571
931.278
934.009
936.682
939.384
942.005
944.643
947.208
949.829
952.352
954.897
957.313
959.825
962.322
964.836
967.058
969.3
971.614
974.088
976.305
978.32
980.214
982.323
984.382
986.431
988.459
992.096
993.886
985.192
979.256
)
;

boundaryField
{
    sideLeft
    {
        type            symmetryPlane;
        value           uniform 0;
    }
    sideRight
    {
        type            calculated;
        value           uniform 3462.47;
    }
    topbottom
    {
        type            empty;
        value           nonuniform 0();
    }
    frontback
    {
        type            empty;
        value           nonuniform 0();
    }
}


// ************************************************************************* //
