/*--------------------------------*- C++ -*----------------------------------*\
| =========                 |                                                 |
| \\      /  F ield         | OpenFOAM: The Open Source CFD Toolbox           |
|  \\    /   O peration     | Version:  2.4.0                                 |
|   \\  /    A nd           | Web:      www.OpenFOAM.org                      |
|    \\/     M anipulation  |                                                 |
\*---------------------------------------------------------------------------*/
FoamFile
{
    version     2.0;
    format      ascii;
    class       volScalarField;
    location    "0.17";
    object      pMean;
}
// * * * * * * * * * * * * * * * * * * * * * * * * * * * * * * * * * * * * * //

dimensions      [1 -1 -2 0 0 0 0];

internalField   nonuniform List<scalar> 
1000
(
5e+06
5e+06
5e+06
5e+06
5e+06
5e+06
5e+06
5e+06
5e+06
5e+06
5e+06
5e+06
5e+06
5e+06
5e+06
5e+06
5e+06
5e+06
5e+06
5e+06
5e+06
5e+06
5e+06
5e+06
5e+06
5e+06
5e+06
5e+06
5e+06
5e+06
5e+06
5e+06
5e+06
5e+06
5e+06
5e+06
5e+06
5e+06
5e+06
5e+06
5e+06
5e+06
5e+06
5e+06
5e+06
5e+06
5e+06
5e+06
5e+06
5e+06
5e+06
5e+06
5e+06
5e+06
5e+06
5e+06
5e+06
5e+06
5e+06
5e+06
5e+06
5e+06
5e+06
5e+06
5e+06
5e+06
5e+06
5e+06
5e+06
5e+06
5e+06
5e+06
5e+06
5e+06
5e+06
5e+06
5e+06
5e+06
5e+06
5e+06
5e+06
5e+06
5e+06
5e+06
5e+06
5e+06
5e+06
5e+06
5e+06
5e+06
5e+06
5e+06
5e+06
5e+06
5e+06
5e+06
5e+06
5e+06
5e+06
5e+06
5e+06
5e+06
5e+06
5e+06
5e+06
5e+06
5e+06
5e+06
5e+06
5e+06
5e+06
5e+06
5e+06
5e+06
5e+06
5e+06
5e+06
5e+06
5e+06
5e+06
5e+06
5e+06
5e+06
5e+06
5e+06
5e+06
5e+06
5e+06
5e+06
5e+06
5e+06
5e+06
5e+06
5e+06
5e+06
5e+06
5e+06
5e+06
5e+06
5e+06
5e+06
5e+06
5e+06
5e+06
5e+06
5e+06
5e+06
5e+06
5e+06
5e+06
5e+06
5e+06
5e+06
5e+06
5e+06
5e+06
5e+06
5e+06
5e+06
5e+06
5e+06
5e+06
5e+06
5e+06
5e+06
5e+06
5e+06
5e+06
5e+06
5e+06
5e+06
5e+06
5e+06
5e+06
5e+06
5e+06
5e+06
5e+06
5e+06
5e+06
5e+06
5e+06
5e+06
5e+06
5e+06
5e+06
5e+06
5e+06
5e+06
5e+06
5e+06
5e+06
5e+06
5e+06
5e+06
5e+06
5e+06
5e+06
5e+06
5e+06
5e+06
5e+06
5e+06
5e+06
5e+06
5e+06
5e+06
5e+06
5e+06
5e+06
5e+06
5e+06
5e+06
5e+06
5e+06
5e+06
5e+06
5e+06
5e+06
5e+06
5e+06
5e+06
5e+06
5e+06
5e+06
5e+06
5e+06
5e+06
5e+06
5e+06
5e+06
5e+06
5e+06
5e+06
5e+06
5e+06
5e+06
5e+06
5e+06
5e+06
5e+06
5e+06
5e+06
5e+06
5e+06
5e+06
5e+06
5e+06
5e+06
5e+06
5e+06
5e+06
5e+06
5e+06
5e+06
5e+06
5e+06
5e+06
5e+06
5e+06
5e+06
5e+06
5e+06
5e+06
5e+06
5e+06
5e+06
5e+06
5e+06
5e+06
5e+06
5e+06
5e+06
5e+06
5e+06
5e+06
5e+06
5e+06
5e+06
5e+06
5e+06
5e+06
5e+06
5e+06
5e+06
5e+06
5e+06
5e+06
5e+06
5e+06
5e+06
5e+06
5e+06
5e+06
5e+06
5e+06
5e+06
5e+06
5e+06
5e+06
5e+06
5e+06
5e+06
5e+06
5e+06
5e+06
5e+06
5e+06
5e+06
5e+06
5e+06
5e+06
5e+06
5e+06
5e+06
5e+06
5e+06
5e+06
5e+06
5e+06
5e+06
5e+06
5e+06
5e+06
5e+06
5e+06
5e+06
5e+06
5e+06
5e+06
5e+06
5e+06
5e+06
5e+06
5e+06
5e+06
5e+06
5e+06
5e+06
5e+06
5e+06
5e+06
5e+06
5e+06
5e+06
5e+06
5e+06
5e+06
5e+06
5e+06
5e+06
5e+06
5e+06
5e+06
5e+06
5e+06
5e+06
5e+06
5e+06
5e+06
5e+06
5e+06
5e+06
5e+06
5e+06
5e+06
5e+06
5e+06
5e+06
5e+06
5e+06
5e+06
5e+06
5e+06
5e+06
5e+06
5e+06
5e+06
5e+06
5e+06
5e+06
5e+06
5e+06
5e+06
5e+06
5e+06
5e+06
5e+06
5e+06
5e+06
5e+06
5e+06
5e+06
5e+06
5e+06
5e+06
5e+06
5e+06
5e+06
5e+06
5e+06
5e+06
5e+06
5e+06
5e+06
5e+06
5e+06
5e+06
5e+06
5e+06
5e+06
5e+06
5e+06
5e+06
5e+06
5e+06
5e+06
5e+06
5e+06
5e+06
5e+06
5e+06
5e+06
5e+06
5e+06
5e+06
5e+06
5e+06
5e+06
5e+06
5e+06
5e+06
5e+06
5e+06
5e+06
5e+06
5e+06
5e+06
5e+06
5e+06
5e+06
5e+06
5e+06
5e+06
5e+06
5e+06
5e+06
5e+06
5e+06
5e+06
5e+06
5e+06
5e+06
4.99999e+06
4.99999e+06
4.99999e+06
4.99999e+06
4.99999e+06
4.99998e+06
4.99998e+06
4.99998e+06
4.99997e+06
4.99997e+06
4.99996e+06
4.99995e+06
4.99995e+06
4.99994e+06
4.99992e+06
4.99991e+06
4.9999e+06
4.99988e+06
4.99986e+06
4.99984e+06
4.99981e+06
4.99979e+06
4.99975e+06
4.99972e+06
4.99968e+06
4.99964e+06
4.99959e+06
4.99953e+06
4.99947e+06
4.99941e+06
4.99934e+06
4.99926e+06
4.99918e+06
4.99908e+06
4.99899e+06
4.99888e+06
4.99876e+06
4.99864e+06
4.99851e+06
4.99836e+06
4.99821e+06
4.99805e+06
4.99788e+06
4.99769e+06
4.9975e+06
4.9973e+06
4.99708e+06
4.99685e+06
4.99662e+06
4.99636e+06
4.9961e+06
4.99583e+06
4.99554e+06
4.99524e+06
4.99492e+06
4.9946e+06
4.99426e+06
4.99391e+06
4.99354e+06
4.99316e+06
4.99277e+06
4.99237e+06
4.99195e+06
4.99151e+06
4.99107e+06
4.99061e+06
4.99013e+06
4.98964e+06
4.98914e+06
4.98863e+06
4.9881e+06
4.98755e+06
4.987e+06
4.98643e+06
4.98584e+06
4.98524e+06
4.98463e+06
4.984e+06
4.98336e+06
4.98271e+06
4.98204e+06
4.98136e+06
4.98066e+06
4.97995e+06
4.97923e+06
4.97849e+06
4.97774e+06
4.97697e+06
4.97619e+06
4.9754e+06
4.97459e+06
4.97377e+06
4.97293e+06
4.97208e+06
4.97122e+06
4.97034e+06
4.96945e+06
4.96855e+06
4.96763e+06
4.9667e+06
4.96575e+06
4.96479e+06
4.96382e+06
4.96283e+06
4.96183e+06
4.96082e+06
4.95979e+06
4.95875e+06
4.95769e+06
4.95662e+06
4.95554e+06
4.95444e+06
4.95333e+06
4.95221e+06
4.95107e+06
4.94991e+06
4.94875e+06
4.94757e+06
4.94638e+06
4.94517e+06
4.94395e+06
4.94271e+06
4.94146e+06
4.9402e+06
4.93892e+06
4.93763e+06
4.93633e+06
4.93501e+06
4.93368e+06
4.93234e+06
4.93098e+06
4.9296e+06
4.92822e+06
4.92682e+06
4.9254e+06
4.92398e+06
4.92253e+06
4.92108e+06
4.91961e+06
4.91813e+06
4.91663e+06
4.91512e+06
4.91359e+06
4.91205e+06
4.9105e+06
4.90893e+06
4.90735e+06
4.90576e+06
4.90415e+06
4.90253e+06
4.90089e+06
4.89924e+06
4.89758e+06
4.8959e+06
4.89421e+06
4.89251e+06
4.89079e+06
4.88905e+06
4.8873e+06
4.88554e+06
4.88377e+06
4.88198e+06
4.88017e+06
4.87836e+06
4.87652e+06
4.87468e+06
4.87282e+06
4.87095e+06
4.86906e+06
4.86716e+06
4.86524e+06
4.86331e+06
4.86137e+06
4.85941e+06
4.85743e+06
4.85545e+06
4.85345e+06
4.85143e+06
4.8494e+06
4.84736e+06
4.8453e+06
4.84323e+06
4.84114e+06
4.83904e+06
4.83693e+06
4.8348e+06
4.83265e+06
4.8305e+06
4.82832e+06
4.82614e+06
4.82394e+06
4.82172e+06
4.81949e+06
4.81725e+06
4.81499e+06
4.81272e+06
4.81043e+06
4.80813e+06
4.80581e+06
4.80348e+06
4.80113e+06
4.79877e+06
4.7964e+06
4.79401e+06
4.79161e+06
4.78919e+06
4.78675e+06
4.78431e+06
4.78184e+06
4.77937e+06
4.77687e+06
4.77437e+06
4.77185e+06
4.76931e+06
4.76676e+06
4.76419e+06
4.76161e+06
4.75902e+06
4.7564e+06
4.75378e+06
4.75114e+06
4.74848e+06
4.74581e+06
4.74313e+06
4.74043e+06
4.73771e+06
4.73498e+06
4.73223e+06
4.72947e+06
4.72669e+06
4.7239e+06
4.72109e+06
4.71827e+06
4.71543e+06
4.71258e+06
4.70971e+06
4.70683e+06
4.70393e+06
4.70102e+06
4.69809e+06
4.69514e+06
4.69218e+06
4.6892e+06
4.68621e+06
4.6832e+06
4.68018e+06
4.67714e+06
4.67408e+06
4.67101e+06
4.66793e+06
4.66482e+06
4.6617e+06
4.65857e+06
4.65542e+06
4.65225e+06
4.64907e+06
4.64587e+06
4.64266e+06
4.63943e+06
4.63618e+06
4.63292e+06
4.62964e+06
4.62634e+06
4.62303e+06
4.6197e+06
4.61636e+06
4.613e+06
4.60962e+06
4.60623e+06
4.60282e+06
4.59939e+06
4.59594e+06
4.59248e+06
4.58901e+06
4.58551e+06
4.582e+06
4.57847e+06
4.57493e+06
4.57137e+06
4.56779e+06
4.56419e+06
4.56058e+06
4.55695e+06
4.5533e+06
4.54964e+06
4.54595e+06
4.54226e+06
4.53854e+06
4.5348e+06
4.53105e+06
4.52728e+06
4.52349e+06
4.51969e+06
4.51587e+06
4.51203e+06
4.50817e+06
4.50429e+06
4.5004e+06
4.49648e+06
4.49255e+06
4.4886e+06
4.48464e+06
4.48065e+06
4.47665e+06
4.47262e+06
4.46858e+06
4.46452e+06
4.46044e+06
4.45635e+06
4.45223e+06
4.4481e+06
4.44394e+06
4.43977e+06
4.43558e+06
4.43136e+06
4.42713e+06
4.42288e+06
4.41861e+06
4.41432e+06
4.41001e+06
4.40569e+06
4.40134e+06
4.39697e+06
4.39258e+06
4.38817e+06
4.38374e+06
4.37929e+06
4.37482e+06
4.37033e+06
4.36582e+06
4.36129e+06
4.35674e+06
4.35217e+06
4.34757e+06
4.34296e+06
4.33832e+06
4.33367e+06
4.32899e+06
4.32429e+06
4.31957e+06
4.31482e+06
4.31006e+06
4.30527e+06
4.30046e+06
4.29563e+06
4.29077e+06
4.28589e+06
4.28099e+06
4.27607e+06
4.27112e+06
4.26615e+06
4.26116e+06
4.25615e+06
4.25111e+06
4.24604e+06
4.24096e+06
4.23585e+06
4.23071e+06
4.22555e+06
4.22037e+06
4.21516e+06
4.20992e+06
4.20466e+06
4.19938e+06
4.19407e+06
4.18873e+06
4.18337e+06
4.17798e+06
4.17257e+06
4.16713e+06
4.16166e+06
4.15617e+06
4.15065e+06
4.1451e+06
4.13952e+06
4.13391e+06
4.12828e+06
4.12262e+06
4.11693e+06
4.11121e+06
4.10546e+06
4.09968e+06
4.09387e+06
4.08804e+06
4.08217e+06
4.07627e+06
4.07033e+06
4.06437e+06
4.05838e+06
4.05235e+06
4.04629e+06
4.0402e+06
4.03407e+06
4.02791e+06
4.02171e+06
4.01548e+06
4.00922e+06
4.00292e+06
3.99658e+06
3.99021e+06
3.9838e+06
3.97735e+06
3.97086e+06
3.96433e+06
3.95777e+06
3.95116e+06
3.94451e+06
3.93782e+06
3.93109e+06
3.92432e+06
3.9175e+06
3.91063e+06
3.90372e+06
3.89677e+06
3.88976e+06
3.88271e+06
3.87561e+06
3.86846e+06
3.86125e+06
3.85399e+06
3.84668e+06
3.83931e+06
3.83188e+06
3.8244e+06
3.81685e+06
3.80924e+06
3.80156e+06
3.79382e+06
3.78601e+06
3.77812e+06
3.77017e+06
3.76213e+06
3.75402e+06
3.74582e+06
3.73753e+06
3.72916e+06
3.72069e+06
3.71213e+06
3.70347e+06
3.69472e+06
3.68586e+06
3.6769e+06
3.66785e+06
3.65871e+06
3.64949e+06
3.6402e+06
3.63089e+06
3.62156e+06
3.61231e+06
3.60322e+06
3.5943e+06
3.58554e+06
3.57689e+06
3.56832e+06
3.55978e+06
3.55124e+06
3.54266e+06
3.53404e+06
3.52536e+06
3.51661e+06
3.50781e+06
3.49894e+06
3.49003e+06
3.48107e+06
3.47207e+06
3.46304e+06
3.45398e+06
3.4449e+06
3.43578e+06
3.42664e+06
3.41748e+06
3.40829e+06
3.39907e+06
3.38982e+06
3.38055e+06
3.37126e+06
3.36193e+06
3.35258e+06
3.3432e+06
3.3338e+06
3.32437e+06
3.31491e+06
3.30543e+06
3.29593e+06
3.28641e+06
3.27686e+06
3.2673e+06
3.25771e+06
3.2481e+06
3.23848e+06
3.22884e+06
3.21918e+06
3.2095e+06
3.19981e+06
3.19011e+06
3.18039e+06
3.17066e+06
3.16091e+06
3.15115e+06
3.14138e+06
3.1316e+06
3.12182e+06
3.11202e+06
3.10222e+06
3.09241e+06
3.08259e+06
3.07277e+06
3.06295e+06
3.05313e+06
3.04332e+06
3.03351e+06
3.02371e+06
3.01393e+06
3.00417e+06
2.99443e+06
2.98472e+06
2.97505e+06
2.96542e+06
2.95585e+06
2.94632e+06
2.93687e+06
2.92748e+06
2.91817e+06
2.90895e+06
2.89982e+06
2.89078e+06
2.88181e+06
2.87292e+06
2.86414e+06
2.85554e+06
2.84715e+06
2.839e+06
2.83112e+06
2.82355e+06
2.8163e+06
2.80941e+06
2.80291e+06
2.79685e+06
2.79134e+06
2.78646e+06
2.78235e+06
2.77913e+06
2.77697e+06
2.77614e+06
2.77671e+06
2.77757e+06
2.77491e+06
)
;

boundaryField
{
    sideLeft
    {
        type            symmetryPlane;
    }
    sideRight
    {
        type            calculated;
        value           uniform 2.76947e+06;
    }
    topbottom
    {
        type            empty;
    }
    frontback
    {
        type            empty;
    }
}


// ************************************************************************* //
