/*--------------------------------*- C++ -*----------------------------------*\
| =========                 |                                                 |
| \\      /  F ield         | OpenFOAM: The Open Source CFD Toolbox           |
|  \\    /   O peration     | Version:  2.4.0                                 |
|   \\  /    A nd           | Web:      www.OpenFOAM.org                      |
|    \\/     M anipulation  |                                                 |
\*---------------------------------------------------------------------------*/
FoamFile
{
    version     2.0;
    format      ascii;
    class       volScalarField;
    location    "0.17";
    object      T.air;
}
// * * * * * * * * * * * * * * * * * * * * * * * * * * * * * * * * * * * * * //

dimensions      [0 0 0 1 0 0 0];

internalField   nonuniform List<scalar> 
1000
(
300
300
300
300
300
300
300
300
300
300
300
300
300
300
300
300
300
300
300
300
300
300
300
300
300
300
300
300
300
300
300
300
300
300
300
300
300
300
300
300
300
300
300
300
300
300
300
300
300
300
300
300
300
300
300
300
300
300
300
300
300
300
300
300
300
300
300
300
300
300
300
300
300
300
300
300
300
300
300
300
300
300
300
300
300
300
300
300
300
300
300
300
300
300
300
300
300
300
300
300
300
300
300
300
300
300
300
300
300
300
300
300
300
300
300
300
300
300
300
300
300
300
300
300
300
300
300
300
300
300
300
300
300
300
300
300
300
300
300
300
300
300
300
300
300
300
300
300
300
300
300
300
300
300
300
300
300
300
300
300
300
300
300
300
300
300
300
300
300
300
300
300
300
300
300
300
300
300
300
300
300
300
300
300
300
300
300
300
300
300
300
300
300
300
300
300
300
300
300
300
300
300
300
300
300
300
300
300
300
300
300
300
300
300
300
300
300
300
300
300
300
300
300
300
300
300
300
300
300
300
300
300
300
300
300
300
300
300
300
300
300
300
300
300
300
300
300
300
300
300
300
300
300
300
300
300
300
300
300
300
300
300
300
300
300
300
300
300
300
300
300
300
300
300
300
300
300
300
300
300
300
300
300
300
300
300
300
300
300
300
300
300
300
300
300
300
300
300
300
300
300
300
300
300
300
300
300
300
300
300
300
300
300
300
300
300
300
300
300
300
300
300
300
300
300
300
300
300
300
300
300
300
300
300
300
300
300
300
300
300
300
300
300
300
300
300
300
300
300
300
300
300
300
300
300
300
300
300
300
300
300
300
300
300
300
300
300
300
300
300
300
300
300
300
300
300
300
300
300
300
300
300
300
300
300
300
300
300
300
300
300
300
300
300
300
300
300
300
300
300
300
300
300
300
300
300
300
300
300
300
300
300
300
300
300
300
300
300
300
300
300
300
300
300
300
300
300
300
300
300
300
300
300
300
300
300
300
300
300
300
300
300
300
300
299.999
299.999
299.999
299.999
299.999
299.998
299.998
299.997
299.997
299.996
299.995
299.995
299.993
299.992
299.991
299.989
299.987
299.984
299.982
299.979
299.975
299.971
299.967
299.962
299.956
299.949
299.942
299.934
299.926
299.916
299.906
299.894
299.882
299.868
299.854
299.838
299.821
299.803
299.784
299.764
299.743
299.72
299.696
299.671
299.645
299.618
299.589
299.56
299.529
299.497
299.465
299.431
299.396
299.36
299.324
299.286
299.248
299.209
299.169
299.128
299.087
299.045
299.003
298.96
298.916
298.872
298.828
298.783
298.737
298.692
298.646
298.599
298.552
298.505
298.458
298.411
298.363
298.315
298.267
298.219
298.17
298.122
298.073
298.024
297.975
297.926
297.877
297.828
297.779
297.729
297.68
297.63
297.58
297.531
297.481
297.431
297.381
297.331
297.281
297.231
297.181
297.131
297.08
297.03
296.979
296.929
296.878
296.828
296.777
296.726
296.676
296.625
296.574
296.523
296.472
296.421
296.37
296.318
296.267
296.216
296.164
296.113
296.061
296.01
295.958
295.906
295.855
295.803
295.751
295.699
295.647
295.595
295.542
295.49
295.438
295.385
295.333
295.28
295.228
295.175
295.122
295.069
295.016
294.963
294.91
294.857
294.804
294.751
294.697
294.644
294.59
294.537
294.483
294.429
294.375
294.322
294.268
294.214
294.159
294.105
294.051
293.997
293.942
293.888
293.833
293.779
293.724
293.669
293.614
293.559
293.504
293.449
293.394
293.339
293.284
293.228
293.173
293.117
293.062
293.006
292.95
292.894
292.839
292.783
292.726
292.67
292.614
292.558
292.501
292.445
292.388
292.332
292.275
292.218
292.161
292.104
292.047
291.99
291.933
291.876
291.818
291.761
291.703
291.646
291.588
291.53
291.472
291.414
291.356
291.298
291.24
291.181
291.123
291.064
291.006
290.947
290.888
290.829
290.77
290.711
290.652
290.592
290.533
290.473
290.414
290.354
290.294
290.234
290.174
290.114
290.054
289.994
289.933
289.873
289.812
289.752
289.691
289.63
289.569
289.508
289.446
289.385
289.324
289.262
289.2
289.138
289.077
289.015
288.952
288.89
288.828
288.765
288.703
288.64
288.577
288.514
288.451
288.388
288.325
288.261
288.198
288.134
288.07
288.006
287.942
287.878
287.813
287.749
287.684
287.62
287.555
287.49
287.425
287.359
287.294
287.228
287.163
287.097
287.031
286.965
286.898
286.832
286.765
286.699
286.632
286.565
286.498
286.43
286.363
286.295
286.227
286.159
286.091
286.023
285.955
285.886
285.817
285.748
285.679
285.61
285.54
285.471
285.4
285.332
285.259
285.193
285.116
285.054
284.972
284.914
284.826
284.774
284.681
284.632
284.536
284.488
284.391
284.342
284.245
284.196
284.098
284.049
283.951
283.901
283.802
283.752
283.653
283.603
283.503
283.452
283.352
283.298
283.203
283.142
283.054
282.983
282.904
282.825
282.75
282.67
282.592
282.515
282.431
282.359
282.27
282.202
282.108
282.043
281.945
281.882
281.782
281.719
281.617
281.555
281.451
281.39
281.284
281.223
281.115
281.055
280.944
280.885
280.772
280.714
280.598
280.54
280.424
280.365
280.247
280.188
280.069
280.009
279.889
279.829
279.707
279.646
279.523
279.461
279.337
279.275
279.149
279.086
278.959
278.894
278.766
278.701
278.57
278.504
278.372
278.306
278.172
278.104
277.968
277.899
277.762
277.692
277.552
277.481
277.339
277.267
277.123
277.05
276.903
276.829
276.679
276.603
276.451
276.374
276.219
276.14
275.982
275.902
275.741
275.658
275.494
275.41
275.241
275.155
274.982
274.894
274.717
274.626
274.445
274.352
274.165
274.069
273.876
273.777
273.579
273.476
273.271
273.164
272.951
272.84
272.618
272.503
272.271
272.151
271.908
271.781
271.525
271.391
271.12
270.978
270.69
270.538
270.231
270.068
269.739
269.564
269.211
269.024
268.646
268.447
268.046
267.84
267.308
266.722
266.058
265.491
264.829
264.29
263.63
263.111
262.447
261.929
261.26
260.718
260.048
259.46
258.798
258.15
257.499
256.789
256.147
255.386
254.741
253.951
253.284
252.489
251.779
251
250.234
249.478
248.658
247.915
247.058
246.303
245.439
244.64
243.797
242.933
242.125
241.194
240.411
239.433
238.65
237.651
236.85
235.838
235.025
233.983
233.188
232.079
231.337
230.138
229.458
228.179
227.53
226.219
225.559
224.235
223.567
222.225
221.548
220.19
219.506
218.133
217.441
216.053
215.354
213.952
213.246
211.83
211.118
209.689
208.971
207.53
206.806
205.353
204.625
203.161
202.429
200.955
200.218
198.735
197.996
196.507
195.761
194.264
193.516
192.022
191.272
189.763
189.014
187.512
186.764
185.264
184.514
183.011
182.264
180.758
180.002
178.42
178.695
179.341
)
;

boundaryField
{
    sideLeft
    {
        type            symmetryPlane;
    }
    sideRight
    {
        type            zeroGradient;
    }
    topbottom
    {
        type            empty;
    }
    frontback
    {
        type            empty;
    }
}


// ************************************************************************* //
