/*--------------------------------*- C++ -*----------------------------------*\
| =========                 |                                                 |
| \\      /  F ield         | OpenFOAM: The Open Source CFD Toolbox           |
|  \\    /   O peration     | Version:  2.4.0                                 |
|   \\  /    A nd           | Web:      www.OpenFOAM.org                      |
|    \\/     M anipulation  |                                                 |
\*---------------------------------------------------------------------------*/
FoamFile
{
    version     2.0;
    format      ascii;
    class       volScalarField;
    location    "0.17";
    object      T.water;
}
// * * * * * * * * * * * * * * * * * * * * * * * * * * * * * * * * * * * * * //

dimensions      [0 0 0 1 0 0 0];

internalField   nonuniform List<scalar> 
1000
(
300
300
300
300
300
300
300
300
300
300
300
300
300
300
300
300
300
300
300
300
300
300
300
300
300
300
300
300
300
300
300
300
300
300
300
300
300
300
300
300
300
300
300
300
300
300
300
300
300
300
300
300
300
300
300
300
300
300
300
300
300
300
300
300
300
300
300
300
300
300
300
300
300
300
300
300
300
300
300
300
300
300
300
300
300
300
300
300
300
300
300
300
300
300
300
300
300
300
300
300
300
300
300
300
300
300
300
300
300
300
300
300
300
300
300
300
300
300
300
300
300
300
300
300
300
300
300
300
300
300
300
300
300
300
300
300
300
300
300
300
300
300
300
300
300
300
300
300
300
300
300
300
300
300
300
300
300
300
300
300
300
300
300
300
300
300
300
300
300
300
300
300
300
300
300
300
300
300
300
300
300
300
300
300
300
300
300
300
300
300
300
300
300
300
300
300
300
300
300
300
300
300
300
300
300
300
300
300
300
300
300
300
300
300
300
300
300
300
300
300
300
300
300
300
300
300
300
300
300
300
300
300
300
300
300
300
300
300
300
300
300
300
300
300
300
300
300
300
300
300
300
300
300
300
300
300
300
300
300
300
300
300
300
300
300
300
300
300
300
300
300
300
300
300
300
300
300
300
300
300
300
300
300
300
300
300
300
300
300
300
300
300
300
300
300
300
300
300
300
300
300
300
300
300
300
300
300
300
300
300
300
300
300
300
300
300
300
300
300
300
300
300
300
300
300
300
300
300
300
300
300
300
300
300
300
300
300
300
300
300
300
300
300
300
300
300
300
300
300
300
300
300
300
300
300
300
300
300
300
300
300
300
300
300
300
300
300
300
300
300
300
300
300
300
300
300
300
300
300
300
300
300
300
300
300
300
300
300
300
300
300
300
300
300
300
300
300
300
300
300
300
300
300
300
300
300
300
300
300
300
300
300
300
300
300
300
300
300
300
300
300
300
300
300
300
300
300
300
300
300
300
300
300
300
300
300
300
300
300
300
300
300
300
300
299.999
299.999
299.999
299.999
299.999
299.998
299.998
299.997
299.997
299.996
299.995
299.994
299.993
299.992
299.99
299.988
299.986
299.984
299.981
299.978
299.974
299.97
299.965
299.96
299.954
299.947
299.94
299.932
299.923
299.913
299.902
299.891
299.878
299.864
299.849
299.833
299.816
299.798
299.779
299.758
299.736
299.713
299.689
299.664
299.637
299.61
299.581
299.551
299.52
299.488
299.455
299.421
299.386
299.35
299.313
299.276
299.237
299.198
299.158
299.117
299.076
299.034
298.992
298.948
298.905
298.861
298.816
298.771
298.726
298.68
298.634
298.588
298.541
298.494
298.447
298.399
298.352
298.304
298.256
298.208
298.159
298.111
298.062
298.013
297.964
297.915
297.866
297.817
297.768
297.718
297.669
297.619
297.57
297.52
297.47
297.421
297.371
297.321
297.271
297.221
297.171
297.12
297.07
297.02
296.969
296.919
296.868
296.818
296.767
296.717
296.666
296.615
296.564
296.513
296.462
296.411
296.36
296.309
296.258
296.207
296.155
296.104
296.052
296.001
295.949
295.897
295.846
295.794
295.742
295.69
295.638
295.586
295.534
295.481
295.429
295.377
295.324
295.272
295.219
295.166
295.114
295.061
295.008
294.955
294.902
294.849
294.796
294.742
294.689
294.636
294.582
294.529
294.475
294.421
294.368
294.314
294.26
294.206
294.152
294.098
294.043
293.989
293.935
293.88
293.826
293.771
293.717
293.662
293.607
293.552
293.497
293.442
293.387
293.332
293.277
293.221
293.166
293.11
293.055
292.999
292.943
292.888
292.832
292.776
292.72
292.664
292.607
292.551
292.495
292.438
292.382
292.325
292.268
292.212
292.155
292.098
292.041
291.984
291.927
291.869
291.812
291.755
291.697
291.639
291.582
291.524
291.466
291.408
291.35
291.292
291.234
291.175
291.117
291.058
291
290.941
290.882
290.823
290.764
290.705
290.646
290.587
290.527
290.468
290.408
290.349
290.289
290.229
290.169
290.109
290.049
289.988
289.928
289.867
289.807
289.746
289.685
289.624
289.563
289.502
289.441
289.38
289.318
289.257
289.195
289.133
289.071
289.009
288.947
288.885
288.823
288.76
288.698
288.635
288.572
288.509
288.446
288.383
288.32
288.256
288.193
288.129
288.065
288.001
287.937
287.873
287.809
287.744
287.68
287.615
287.55
287.485
287.42
287.355
287.289
287.224
287.158
287.092
287.026
286.96
286.894
286.828
286.761
286.694
286.628
286.561
286.493
286.426
286.359
286.291
286.223
286.155
286.087
286.019
285.951
285.882
285.813
285.744
285.675
285.606
285.536
285.467
285.396
285.328
285.255
285.189
285.112
285.05
284.968
284.911
284.823
284.771
284.677
284.629
284.532
284.484
284.387
284.339
284.241
284.193
284.095
284.046
283.947
283.898
283.799
283.749
283.65
283.599
283.499
283.448
283.349
283.295
283.199
283.139
283.051
282.98
282.901
282.822
282.747
282.666
282.589
282.512
282.428
282.356
282.267
282.199
282.105
282.04
281.942
281.879
281.779
281.716
281.614
281.552
281.448
281.387
281.281
281.22
281.112
281.052
280.942
280.883
280.769
280.711
280.596
280.538
280.421
280.363
280.245
280.186
280.067
280.007
279.887
279.826
279.705
279.644
279.521
279.459
279.335
279.272
279.147
279.083
278.956
278.892
278.763
278.698
278.568
278.502
278.37
278.303
278.169
278.102
277.966
277.897
277.76
277.69
277.55
277.479
277.337
277.265
277.121
277.048
276.901
276.827
276.677
276.601
276.449
276.372
276.217
276.138
275.98
275.9
275.739
275.657
275.492
275.408
275.239
275.153
274.981
274.892
274.715
274.625
274.443
274.35
274.163
274.067
273.875
273.776
273.577
273.475
273.269
273.163
272.95
272.839
272.617
272.502
272.27
272.149
271.907
271.779
271.524
271.389
271.119
270.976
270.689
270.537
270.23
270.067
269.738
269.563
269.21
269.023
268.645
268.446
268.045
267.839
267.308
266.721
266.057
265.49
264.829
264.29
263.629
263.111
262.447
261.928
261.26
260.717
260.048
259.46
258.797
258.149
257.498
256.788
256.146
255.386
254.741
253.95
253.284
252.489
251.779
251
250.234
249.478
248.657
247.915
247.057
246.302
245.438
244.64
243.797
242.933
242.124
241.194
240.41
239.433
238.649
237.65
236.849
235.838
235.025
233.982
233.187
232.079
231.336
230.137
229.457
228.178
227.528
226.218
225.558
224.233
223.565
222.223
221.546
220.188
219.504
218.13
217.439
216.05
215.351
213.949
213.243
211.827
211.115
209.685
208.967
207.526
206.802
205.348
204.62
203.156
202.422
200.949
200.21
198.729
197.987
196.5
195.751
194.257
193.506
192.012
191.26
189.753
189.002
187.499
186.751
185.249
184.499
182.996
182.247
180.743
179.996
178.404
178.668
179.34
)
;

boundaryField
{
    sideLeft
    {
        type            symmetryPlane;
    }
    sideRight
    {
        type            zeroGradient;
    }
    topbottom
    {
        type            empty;
    }
    frontback
    {
        type            empty;
    }
}


// ************************************************************************* //
