/*--------------------------------*- C++ -*----------------------------------*\
| =========                 |                                                 |
| \\      /  F ield         | OpenFOAM: The Open Source CFD Toolbox           |
|  \\    /   O peration     | Version:  2.4.0                                 |
|   \\  /    A nd           | Web:      www.OpenFOAM.org                      |
|    \\/     M anipulation  |                                                 |
\*---------------------------------------------------------------------------*/
FoamFile
{
    version     2.0;
    format      ascii;
    class       volVectorField;
    location    "0.17";
    object      U;
}
// * * * * * * * * * * * * * * * * * * * * * * * * * * * * * * * * * * * * * //

dimensions      [0 1 -1 0 0 0 0];

internalField   nonuniform List<vector> 
1000
(
(-1.63423e-13 0 0)
(-2.20269e-13 0 0)
(-2.98427e-13 0 0)
(-4.68959e-13 0 0)
(-5.40011e-13 0 0)
(-4.76065e-13 0 0)
(-5.8975e-13 0 0)
(-4.1922e-13 0 0)
(-4.33431e-13 0 0)
(-4.68958e-13 0 0)
(-4.61853e-13 0 0)
(-4.47641e-13 0 0)
(-5.82646e-13 0 0)
(-7.95807e-13 0 0)
(-8.38441e-13 0 0)
(-1.14397e-12 0 0)
(-1.29319e-12 0 0)
(-1.20082e-12 0 0)
(-1.12266e-12 0 0)
(-1.0445e-12 0 0)
(-7.46071e-13 0 0)
(-6.18171e-13 0 0)
(-4.97381e-13 0 0)
(-7.10542e-13 0 0)
(-6.46594e-13 0 0)
(-6.75016e-13 0 0)
(-4.33431e-13 0 0)
(-1.77636e-13 0 0)
(-2.84207e-14 0 0)
(2.13153e-14 0 0)
(-6.39483e-14 0 0)
(-4.26325e-14 0 0)
(-4.26329e-14 0 0)
(-1.13686e-13 0 0)
(-3.48167e-13 0 0)
(-5.82643e-13 0 0)
(-6.82123e-13 0 0)
(-5.32906e-13 0 0)
(-2.77113e-13 0 0)
(-2.77111e-13 0 0)
(-2.48691e-13 0 0)
(-1.20792e-13 0 0)
(8.52651e-14 0 0)
(9.23708e-14 0 0)
(-2.4869e-13 0 0)
(-2.4869e-13 0 0)
(-8.5265e-14 0 0)
(1.42108e-13 0 0)
(3.69483e-13 0 0)
(3.4106e-13 0 0)
(2.55796e-13 0 0)
(4.26325e-13 0 0)
(5.89751e-13 0 0)
(5.04485e-13 0 0)
(5.61329e-13 0 0)
(3.55271e-13 0 0)
(3.33955e-13 0 0)
(3.69482e-13 0 0)
(3.62377e-13 0 0)
(2.84217e-13 0 0)
(3.19745e-13 0 0)
(4.05008e-13 0 0)
(5.32907e-13 0 0)
(5.61329e-13 0 0)
(8.59756e-13 0 0)
(7.81597e-13 0 0)
(4.90274e-13 0 0)
(5.8975e-13 0 0)
(6.46594e-13 0 0)
(7.10542e-13 0 0)
(8.59757e-13 0 0)
(9.23705e-13 0 0)
(1.34293e-12 0 0)
(1.47793e-12 0 0)
(1.40687e-12 0 0)
(1.45661e-12 0 0)
(1.12976e-12 0 0)
(9.45022e-13 0 0)
(8.59757e-13 0 0)
(9.09495e-13 0 0)
(1.0516e-12 0 0)
(1.13687e-12 0 0)
(1.02318e-12 0 0)
(1.1795e-12 0 0)
(8.88179e-13 0 0)
(9.37916e-13 0 0)
(8.31336e-13 0 0)
(8.45545e-13 0 0)
(6.18172e-13 0 0)
(4.68958e-13 0 0)
(5.18696e-13 0 0)
(3.83693e-13 0 0)
(3.2685e-13 0 0)
(4.12115e-13 0 0)
(1.63425e-13 0 0)
(1.35002e-13 0 0)
(1.35004e-13 0 0)
(1.49213e-13 0 0)
(2.3448e-13 0 0)
(1.7053e-13 0 0)
(1.77636e-13 0 0)
(2.13162e-13 0 0)
(3.12639e-13 0 0)
(1.35003e-13 0 0)
(1.13687e-13 0 0)
(-9.23703e-14 0 0)
(-3.76588e-13 0 0)
(-4.0501e-13 0 0)
(-5.25801e-13 0 0)
(-7.03438e-13 0 0)
(-9.87654e-13 0 0)
(-8.73968e-13 0 0)
(-1.03739e-12 0 0)
(-1.28608e-12 0 0)
(-1.14397e-12 0 0)
(-9.73443e-13 0 0)
(-6.60805e-13 0 0)
(-5.61329e-13 0 0)
(-4.33432e-13 0 0)
(-3.33954e-13 0 0)
(-1.5632e-13 0 0)
(2.84223e-14 0 0)
(3.4106e-13 0 0)
(2.27374e-13 0 0)
(2.98427e-13 0 0)
(4.19221e-13 0 0)
(5.68433e-13 0 0)
(3.48167e-13 0 0)
(4.26325e-13 0 0)
(3.48167e-13 0 0)
(1.70529e-13 0 0)
(1.70531e-13 0 0)
(4.1922e-13 0 0)
(5.47118e-13 0 0)
(2.70006e-13 0 0)
(3.2685e-13 0 0)
(5.32907e-13 0 0)
(3.69482e-13 0 0)
(-1.42109e-14 0 0)
(-2.13163e-13 0 0)
(-6.39485e-14 0 0)
(9.237e-14 0 0)
(1.98953e-13 0 0)
(2.34478e-13 0 0)
(3.26851e-13 0 0)
(4.3343e-13 0 0)
(3.05534e-13 0 0)
(3.97904e-13 0 0)
(2.20268e-13 0 0)
(1.63425e-13 0 0)
(1.27898e-13 0 0)
(1.49214e-13 0 0)
(1.13687e-13 0 0)
(7.1052e-15 0 0)
(-1.27898e-13 0 0)
(-1.20793e-13 0 0)
(-1.63424e-13 0 0)
(-4.97386e-14 0 0)
(-2.48689e-13 0 0)
(-1.35004e-13 0 0)
(-2.13153e-14 0 0)
(3.19743e-13 0 0)
(5.89751e-13 0 0)
(1.63424e-13 0 0)
(-8.52647e-14 0 0)
(-3.48167e-13 0 0)
(-5.04484e-13 0 0)
(-2.48691e-13 0 0)
(-4.12114e-13 0 0)
(9.94757e-14 0 0)
(-1.20792e-13 0 0)
(-8.52654e-14 0 0)
(7.10589e-15 0 0)
(-7.81603e-14 0 0)
(1.70531e-13 0 0)
(3.48165e-13 0 0)
(1.77637e-13 0 0)
(2.48689e-13 0 0)
(3.2685e-13 0 0)
(2.34479e-13 0 0)
(3.90798e-13 0 0)
(4.68958e-13 0 0)
(8.95283e-13 0 0)
(1.16529e-12 0 0)
(1.05871e-12 0 0)
(1.0516e-12 0 0)
(8.95282e-13 0 0)
(7.60283e-13 0 0)
(7.10541e-13 0 0)
(7.46071e-13 0 0)
(1.03739e-12 0 0)
(1.1724e-12 0 0)
(1.27898e-12 0 0)
(8.8818e-13 0 0)
(1.19371e-12 0 0)
(9.23706e-13 0 0)
(7.88702e-13 0 0)
(6.75016e-13 0 0)
(6.39488e-13 0 0)
(3.41061e-13 0 0)
(4.3343e-13 0 0)
(3.1264e-13 0 0)
(5.61327e-13 0 0)
(4.0501e-13 0 0)
(4.40536e-13 0 0)
(2.70007e-13 0 0)
(3.33955e-13 0 0)
(5.68434e-13 0 0)
(7.17649e-13 0 0)
(5.25801e-13 0 0)
(2.55796e-13 0 0)
(1.13686e-13 0 0)
(2.84225e-14 0 0)
(3.12638e-13 0 0)
(1.06582e-13 0 0)
(2.27373e-13 0 0)
(2.84218e-13 0 0)
(2.91322e-13 0 0)
(1.84741e-13 0 0)
(2.41585e-13 0 0)
(2.41584e-13 0 0)
(1.98953e-13 0 0)
(2.20268e-13 0 0)
(4.47642e-13 0 0)
(4.61853e-13 0 0)
(2.20268e-13 0 0)
(-8.52654e-14 0 0)
(-2.06057e-13 0 0)
(-2.70006e-13 0 0)
(-3.19744e-13 0 0)
(-4.40536e-13 0 0)
(-4.9738e-13 0 0)
(-3.90798e-13 0 0)
(-3.908e-13 0 0)
(-3.5527e-13 0 0)
(1.63423e-13 0 0)
(3.48167e-13 0 0)
(6.11066e-13 0 0)
(6.96333e-13 0 0)
(9.02389e-13 0 0)
(1.00187e-12 0 0)
(9.02389e-13 0 0)
(1.00187e-12 0 0)
(1.16529e-12 0 0)
(1.18661e-12 0 0)
(1.35003e-12 0 0)
(1.68399e-12 0 0)
(1.81899e-12 0 0)
(1.95399e-12 0 0)
(1.79767e-12 0 0)
(1.80478e-12 0 0)
(1.99662e-12 0 0)
(2.19558e-12 0 0)
(2.13163e-12 0 0)
(1.79057e-12 0 0)
(1.46372e-12 0 0)
(1.23634e-12 0 0)
(1.14397e-12 0 0)
(8.73967e-13 0 0)
(9.45023e-13 0 0)
(8.24229e-13 0 0)
(5.96856e-13 0 0)
(6.11067e-13 0 0)
(6.75016e-13 0 0)
(6.537e-13 0 0)
(5.54223e-13 0 0)
(4.05011e-13 0 0)
(5.18695e-13 0 0)
(7.81599e-13 0 0)
(9.30809e-13 0 0)
(9.37918e-13 0 0)
(1.12266e-12 0 0)
(8.45547e-13 0 0)
(7.38964e-13 0 0)
(6.03962e-13 0 0)
(5.18695e-13 0 0)
(5.11592e-13 0 0)
(5.25801e-13 0 0)
(4.47643e-13 0 0)
(2.77111e-13 0 0)
(-4.26324e-14 0 0)
(1.42108e-13 0 0)
(6.39488e-13 0 0)
(8.24231e-13 0 0)
(9.52126e-13 0 0)
(8.45546e-13 0 0)
(5.96856e-13 0 0)
(5.8975e-13 0 0)
(4.9738e-13 0 0)
(3.83693e-13 0 0)
(3.26849e-13 0 0)
(3.62377e-13 0 0)
(8.52644e-14 0 0)
(-1.63424e-13 0 0)
(3.12638e-13 0 0)
(6.46594e-13 0 0)
(7.24754e-13 0 0)
(4.54748e-13 0 0)
(7.81596e-13 0 0)
(9.94761e-13 0 0)
(1.17239e-12 0 0)
(8.81074e-13 0 0)
(9.94759e-13 0 0)
(8.31335e-13 0 0)
(6.96332e-13 0 0)
(4.33431e-13 0 0)
(5.96856e-13 0 0)
(6.53699e-13 0 0)
(5.82645e-13 0 0)
(4.97381e-13 0 0)
(5.75539e-13 0 0)
(5.04486e-13 0 0)
(4.90274e-13 0 0)
(5.25802e-13 0 0)
(3.4106e-13 0 0)
(4.97383e-14 0 0)
(1.91846e-13 0 0)
(4.47642e-13 0 0)
(4.0501e-13 0 0)
(7.46069e-13 0 0)
(8.59757e-13 0 0)
(8.02914e-13 0 0)
(6.6791e-13 0 0)
(8.95284e-13 0 0)
(9.52127e-13 0 0)
(6.60805e-13 0 0)
(3.2685e-13 0 0)
(9.23702e-14 0 0)
(-1.13687e-13 0 0)
(-1.35003e-13 0 0)
(-5.68436e-14 0 0)
(-1.06582e-13 0 0)
(2.84226e-14 0 0)
(-1.56321e-13 0 0)
(-3.76586e-13 0 0)
(-7.10554e-14 0 0)
(-1.98951e-13 0 0)
(-3.2685e-13 0 0)
(-6.96332e-13 0 0)
(-7.88702e-13 0 0)
(-4.61853e-13 0 0)
(-5.47118e-13 0 0)
(-1.49214e-13 0 0)
(1.49215e-13 0 0)
(8.52642e-14 0 0)
(1.13688e-13 0 0)
(2.20267e-13 0 0)
(2.70007e-13 0 0)
(3.69482e-13 0 0)
(2.13163e-13 0 0)
(2.13163e-13 0 0)
(1.13687e-13 0 0)
(-7.10595e-15 0 0)
(6.39499e-14 0 0)
(2.13162e-13 0 0)
(-1.7053e-13 0 0)
(-1.91847e-13 0 0)
(-1.27898e-13 0 0)
(-3.69482e-13 0 0)
(-5.68434e-13 0 0)
(-6.18172e-13 0 0)
(-8.31335e-13 0 0)
(-6.60805e-13 0 0)
(-3.90799e-13 0 0)
(-2.55795e-13 0 0)
(-4.12116e-13 0 0)
(-5.89749e-13 0 0)
(-3.76589e-13 0 0)
(-8.66861e-13 0 0)
(-1.0445e-12 0 0)
(-1.01608e-12 0 0)
(-8.66863e-13 0 0)
(-7.53175e-13 0 0)
(-2.4869e-13 0 0)
(3.97904e-13 0 0)
(8.88178e-13 0 0)
(1.4424e-12 0 0)
(2.04636e-12 0 0)
(2.65033e-12 0 0)
(2.94875e-12 0 0)
(3.77298e-12 0 0)
(5.39302e-12 0 0)
(7.88703e-12 0 0)
(1.14611e-11 0 0)
(1.65414e-11 0 0)
(2.43006e-11 0 0)
(3.56195e-11 0 0)
(5.24523e-11 0 0)
(7.73994e-11 0 0)
(1.14497e-10 0 0)
(1.69706e-10 0 0)
(2.51148e-10 0 0)
(3.71415e-10 0 0)
(5.47779e-10 0 0)
(8.06459e-10 0 0)
(1.18412e-09 0 0)
(1.73392e-09 0 0)
(2.53227e-09 0 0)
(3.68796e-09 0 0)
(5.35648e-09 0 0)
(7.75739e-09 0 0)
(1.12019e-08 0 0)
(1.61283e-08 0 0)
(2.31533e-08 0 0)
(3.31397e-08 0 0)
(4.72922e-08 0 0)
(6.72877e-08 0 0)
(9.5451e-08 0 0)
(1.34994e-07 0 0)
(1.9034e-07 0 0)
(2.6756e-07 0 0)
(3.74958e-07 0 0)
(5.23851e-07 0 0)
(7.29609e-07 0 0)
(1.01303e-06 0 0)
(1.40216e-06 0 0)
(1.93469e-06 0 0)
(2.66105e-06 0 0)
(3.64855e-06 0 0)
(4.98659e-06 0 0)
(6.79355e-06 0 0)
(9.22555e-06 0 0)
(1.24878e-05 0 0)
(1.68486e-05 0 0)
(2.26583e-05 0 0)
(3.03714e-05 0 0)
(4.05761e-05 0 0)
(5.40301e-05 0 0)
(7.17059e-05 0 0)
(9.48463e-05 0 0)
(0.000125033 0 0)
(0.000164271 0 0)
(0.00021509 0 0)
(0.000280672 0 0)
(0.000364994 0 0)
(0.000473015 0 0)
(0.000610886 0 0)
(0.000786199 0 0)
(0.00100829 0 0)
(0.00128858 0 0)
(0.00164098 0 0)
(0.00208235 0 0)
(0.00263303 0 0)
(0.00331744 0 0)
(0.00416474 0 0)
(0.00520958 0 0)
(0.00649294 0 0)
(0.00806303 0 0)
(0.00997622 0 0)
(0.0122981 0 0)
(0.0151047 0 0)
(0.0184832 0 0)
(0.0225338 0 0)
(0.0273699 0 0)
(0.0331203 0 0)
(0.0399294 0 0)
(0.0479585 0 0)
(0.0573865 0 0)
(0.0684109 0 0)
(0.0812478 0 0)
(0.0961321 0 0)
(0.113318 0 0)
(0.133077 0 0)
(0.155699 0 0)
(0.181491 0 0)
(0.210772 0 0)
(0.243877 0 0)
(0.281148 0 0)
(0.322936 0 0)
(0.369597 0 0)
(0.421487 0 0)
(0.47896 0 0)
(0.542363 0 0)
(0.612032 0 0)
(0.688291 0 0)
(0.771445 0 0)
(0.861776 0 0)
(0.959545 0 0)
(1.06498 0 0)
(1.17829 0 0)
(1.29963 0 0)
(1.42915 0 0)
(1.56694 0 0)
(1.71306 0 0)
(1.86754 0 0)
(2.03038 0 0)
(2.20152 0 0)
(2.3809 0 0)
(2.5684 0 0)
(2.76389 0 0)
(2.96719 0 0)
(3.17811 0 0)
(3.39644 0 0)
(3.62194 0 0)
(3.85435 0 0)
(4.09342 0 0)
(4.33886 0 0)
(4.59038 0 0)
(4.84768 0 0)
(5.11047 0 0)
(5.37844 0 0)
(5.65129 0 0)
(5.92873 0 0)
(6.21046 0 0)
(6.49618 0 0)
(6.78562 0 0)
(7.07849 0 0)
(7.37454 0 0)
(7.67351 0 0)
(7.97515 0 0)
(8.27922 0 0)
(8.58551 0 0)
(8.8938 0 0)
(9.20389 0 0)
(9.51559 0 0)
(9.82874 0 0)
(10.1432 0 0)
(10.4587 0 0)
(10.7752 0 0)
(11.0926 0 0)
(11.4107 0 0)
(11.7294 0 0)
(12.0486 0 0)
(12.3682 0 0)
(12.6882 0 0)
(13.0085 0 0)
(13.3289 0 0)
(13.6495 0 0)
(13.9702 0 0)
(14.2909 0 0)
(14.6116 0 0)
(14.9322 0 0)
(15.2528 0 0)
(15.5733 0 0)
(15.8936 0 0)
(16.2138 0 0)
(16.5338 0 0)
(16.8537 0 0)
(17.1734 0 0)
(17.4929 0 0)
(17.8121 0 0)
(18.1312 0 0)
(18.4501 0 0)
(18.7688 0 0)
(19.0872 0 0)
(19.4055 0 0)
(19.7235 0 0)
(20.0414 0 0)
(20.3591 0 0)
(20.6765 0 0)
(20.9938 0 0)
(21.3109 0 0)
(21.6279 0 0)
(21.9446 0 0)
(22.2612 0 0)
(22.5777 0 0)
(22.894 0 0)
(23.2101 0 0)
(23.5262 0 0)
(23.8421 0 0)
(24.1579 0 0)
(24.4735 0 0)
(24.7891 0 0)
(25.1046 0 0)
(25.4199 0 0)
(25.7352 0 0)
(26.0504 0 0)
(26.3656 0 0)
(26.6807 0 0)
(26.9957 0 0)
(27.3107 0 0)
(27.6256 0 0)
(27.9405 0 0)
(28.2553 0 0)
(28.5701 0 0)
(28.8849 0 0)
(29.1997 0 0)
(29.5145 0 0)
(29.8292 0 0)
(30.144 0 0)
(30.4587 0 0)
(30.7735 0 0)
(31.0883 0 0)
(31.4031 0 0)
(31.7179 0 0)
(32.0327 0 0)
(32.3476 0 0)
(32.6624 0 0)
(32.9774 0 0)
(33.2923 0 0)
(33.6073 0 0)
(33.9224 0 0)
(34.2375 0 0)
(34.5526 0 0)
(34.8678 0 0)
(35.1831 0 0)
(35.4984 0 0)
(35.8138 0 0)
(36.1292 0 0)
(36.4448 0 0)
(36.7603 0 0)
(37.076 0 0)
(37.3917 0 0)
(37.7075 0 0)
(38.0234 0 0)
(38.3394 0 0)
(38.6554 0 0)
(38.9715 0 0)
(39.2877 0 0)
(39.6041 0 0)
(39.9205 0 0)
(40.237 0 0)
(40.5535 0 0)
(40.8702 0 0)
(41.187 0 0)
(41.5039 0 0)
(41.8209 0 0)
(42.1381 0 0)
(42.4553 0 0)
(42.7726 0 0)
(43.0901 0 0)
(43.4077 0 0)
(43.7254 0 0)
(44.0433 0 0)
(44.3613 0 0)
(44.6794 0 0)
(44.9976 0 0)
(45.316 0 0)
(45.6346 0 0)
(45.9533 0 0)
(46.2721 0 0)
(46.5911 0 0)
(46.9103 0 0)
(47.2296 0 0)
(47.5492 0 0)
(47.8688 0 0)
(48.1887 0 0)
(48.5087 0 0)
(48.829 0 0)
(49.1494 0 0)
(49.47 0 0)
(49.7908 0 0)
(50.1118 0 0)
(50.433 0 0)
(50.7544 0 0)
(51.0761 0 0)
(51.3979 0 0)
(51.72 0 0)
(52.0423 0 0)
(52.3648 0 0)
(52.6876 0 0)
(53.0106 0 0)
(53.3339 0 0)
(53.6573 0 0)
(53.9811 0 0)
(54.3051 0 0)
(54.6293 0 0)
(54.9538 0 0)
(55.2786 0 0)
(55.6037 0 0)
(55.929 0 0)
(56.2546 0 0)
(56.5804 0 0)
(56.9066 0 0)
(57.233 0 0)
(57.5597 0 0)
(57.8867 0 0)
(58.2141 0 0)
(58.5417 0 0)
(58.8696 0 0)
(59.1978 0 0)
(59.5264 0 0)
(59.8552 0 0)
(60.1844 0 0)
(60.5139 0 0)
(60.8437 0 0)
(61.1739 0 0)
(61.5044 0 0)
(61.8352 0 0)
(62.1664 0 0)
(62.4979 0 0)
(62.8298 0 0)
(63.162 0 0)
(63.4946 0 0)
(63.8276 0 0)
(64.1609 0 0)
(64.4946 0 0)
(64.8287 0 0)
(65.1631 0 0)
(65.498 0 0)
(65.8332 0 0)
(66.1689 0 0)
(66.5049 0 0)
(66.8413 0 0)
(67.1782 0 0)
(67.5155 0 0)
(67.8532 0 0)
(68.1913 0 0)
(68.5298 0 0)
(68.8688 0 0)
(69.2083 0 0)
(69.5481 0 0)
(69.8885 0 0)
(70.2293 0 0)
(70.5705 0 0)
(70.9122 0 0)
(71.2544 0 0)
(71.5971 0 0)
(71.9403 0 0)
(72.284 0 0)
(72.6281 0 0)
(72.9728 0 0)
(73.318 0 0)
(73.6636 0 0)
(74.0099 0 0)
(74.3566 0 0)
(74.7039 0 0)
(75.0517 0 0)
(75.4001 0 0)
(75.749 0 0)
(76.0984 0 0)
(76.4485 0 0)
(76.7991 0 0)
(77.1503 0 0)
(77.5021 0 0)
(77.8545 0 0)
(78.2075 0 0)
(78.561 0 0)
(78.9152 0 0)
(79.27 0 0)
(79.6255 0 0)
(79.9816 0 0)
(80.3383 0 0)
(80.6957 0 0)
(81.0537 0 0)
(81.4124 0 0)
(81.7718 0 0)
(82.1318 0 0)
(82.4926 0 0)
(82.8539 0 0)
(83.2164 0 0)
(83.5789 0 0)
(83.943 0 0)
(84.3066 0 0)
(84.6728 0 0)
(85.0372 0 0)
(85.4059 0 0)
(85.7704 0 0)
(86.1424 0 0)
(86.5064 0 0)
(86.8826 0 0)
(87.245 0 0)
(87.6266 0 0)
(87.9863 0 0)
(88.3744 0 0)
(88.7309 0 0)
(89.1257 0 0)
(89.4791 0 0)
(89.8798 0 0)
(90.2319 0 0)
(90.6363 0 0)
(90.9901 0 0)
(91.3946 0 0)
(91.7543 0 0)
(92.1544 0 0)
(92.5249 0 0)
(92.9154 0 0)
(93.3022 0 0)
(93.6776 0 0)
(94.0863 0 0)
(94.4413 0 0)
(94.8773 0 0)
(95.2072 0 0)
(95.6743 0 0)
(95.9768 0 0)
(96.4749 0 0)
(96.7531 0 0)
(97.2752 0 0)
(97.5401 0 0)
(98.0722 0 0)
(98.3388 0 0)
(98.8725 0 0)
(99.1416 0 0)
(99.6795 0 0)
(99.9494 0 0)
(100.49 0 0)
(100.763 0 0)
(101.307 0 0)
(101.581 0 0)
(102.13 0 0)
(102.405 0 0)
(102.958 0 0)
(103.235 0 0)
(103.791 0 0)
(104.071 0 0)
(104.631 0 0)
(104.913 0 0)
(105.478 0 0)
(105.761 0 0)
(106.33 0 0)
(106.616 0 0)
(107.189 0 0)
(107.477 0 0)
(108.055 0 0)
(108.346 0 0)
(108.929 0 0)
(109.223 0 0)
(109.808 0 0)
(110.111 0 0)
(110.689 0 0)
(111.013 0 0)
(111.573 0 0)
(111.927 0 0)
(112.462 0 0)
(112.849 0 0)
(113.363 0 0)
(113.776 0 0)
(114.278 0 0)
(114.707 0 0)
(115.205 0 0)
(115.647 0 0)
(116.143 0 0)
(116.596 0 0)
(117.09 0 0)
(117.554 0 0)
(118.051 0 0)
(118.522 0 0)
(119.024 0 0)
(119.499 0 0)
(120.008 0 0)
(120.489 0 0)
(121.004 0 0)
(121.493 0 0)
(122.012 0 0)
(122.509 0 0)
(123.033 0 0)
(123.538 0 0)
(124.068 0 0)
(124.582 0 0)
(125.119 0 0)
(125.64 0 0)
(126.185 0 0)
(126.714 0 0)
(127.267 0 0)
(127.805 0 0)
(128.366 0 0)
(128.913 0 0)
(129.482 0 0)
(130.041 0 0)
(130.618 0 0)
(131.187 0 0)
(131.775 0 0)
(132.354 0 0)
(132.954 0 0)
(133.543 0 0)
(134.155 0 0)
(134.756 0 0)
(135.382 0 0)
(135.994 0 0)
(136.634 0 0)
(137.26 0 0)
(137.914 0 0)
(138.556 0 0)
(139.223 0 0)
(139.885 0 0)
(140.565 0 0)
(141.248 0 0)
(141.943 0 0)
(142.649 0 0)
(143.36 0 0)
(144.09 0 0)
(144.821 0 0)
(145.575 0 0)
(146.329 0 0)
(147.111 0 0)
(147.889 0 0)
(148.704 0 0)
(149.509 0 0)
(150.36 0 0)
(151.195 0 0)
(152.086 0 0)
(152.957 0 0)
(153.891 0 0)
(154.807 0 0)
(155.788 0 0)
(156.756 0 0)
(157.791 0 0)
(158.819 0 0)
(159.914 0 0)
(161.009 0 0)
(162.174 0 0)
(163.342 0 0)
(164.586 0 0)
(165.832 0 0)
(167.16 0 0)
(168.485 0 0)
(169.893 0 0)
(171.288 0 0)
(172.756 0 0)
(174.19 0 0)
(175.664 0 0)
(177.065 0 0)
(178.407 0 0)
(179.61 0 0)
(180.737 0 0)
(181.718 0 0)
(182.652 0 0)
(183.463 0 0)
(184.273 0 0)
(184.995 0 0)
(185.754 0 0)
(186.459 0 0)
(187.217 0 0)
(187.953 0 0)
(188.735 0 0)
(189.525 0 0)
(190.334 0 0)
(191.173 0 0)
(192 0 0)
(192.87 0 0)
(193.705 0 0)
(194.584 0 0)
(195.419 0 0)
(196.289 0 0)
(197.122 0 0)
(197.973 0 0)
(198.804 0 0)
(199.634 0 0)
(200.465 0 0)
(201.278 0 0)
(202.106 0 0)
(202.912 0 0)
(203.734 0 0)
(204.542 0 0)
(205.351 0 0)
(206.168 0 0)
(206.961 0 0)
(207.79 0 0)
(208.565 0 0)
(209.401 0 0)
(210.165 0 0)
(210.999 0 0)
(211.758 0 0)
(212.581 0 0)
(213.338 0 0)
(214.149 0 0)
(214.901 0 0)
(215.707 0 0)
(216.444 0 0)
(217.256 0 0)
(217.968 0 0)
(218.791 0 0)
(219.476 0 0)
(220.309 0 0)
(220.977 0 0)
(221.804 0 0)
(222.463 0 0)
(223.286 0 0)
(223.94 0 0)
(224.749 0 0)
(225.4 0 0)
(226.197 0 0)
(226.845 0 0)
(227.632 0 0)
(228.27 0 0)
(229.051 0 0)
(229.675 0 0)
(230.457 0 0)
(231.061 0 0)
(231.845 0 0)
(232.43 0 0)
(233.213 0 0)
(233.781 0 0)
(234.56 0 0)
(235.116 0 0)
(235.881 0 0)
(236.432 0 0)
(237.17 0 0)
(237.735 0 0)
(238.427 0 0)
(239.018 0 0)
(239.642 0 0)
(240.283 0 0)
(240.843 0 0)
(241.522 0 0)
(241.989 0 0)
(242.687 0 0)
(243.143 0 0)
(243.83 0 0)
(244.255 0 0)
(244.887 0 0)
(245.289 0 0)
(245.921 0 0)
(246.298 0 0)
(246.907 0 0)
(247.267 0 0)
(248.166 0 0)
(247.872 0 0)
(246.195 0 0)
(246.062 0 0)
)
;

boundaryField
{
    sideLeft
    {
        type            symmetryPlane;
    }
    sideRight
    {
        type            calculated;
        value           uniform (245.201 0 0);
    }
    topbottom
    {
        type            empty;
    }
    frontback
    {
        type            empty;
    }
}


// ************************************************************************* //
