/*--------------------------------*- C++ -*----------------------------------*\
| =========                 |                                                 |
| \\      /  F ield         | OpenFOAM: The Open Source CFD Toolbox           |
|  \\    /   O peration     | Version:  2.4.0                                 |
|   \\  /    A nd           | Web:      www.OpenFOAM.org                      |
|    \\/     M anipulation  |                                                 |
\*---------------------------------------------------------------------------*/
FoamFile
{
    version     2.0;
    format      ascii;
    class       volVectorField;
    location    "0.17";
    object      U.airMean;
}
// * * * * * * * * * * * * * * * * * * * * * * * * * * * * * * * * * * * * * //

dimensions      [0 1 -1 0 0 0 0];

internalField   nonuniform List<vector> 
1000
(
(-6.51559e-14 0 0)
(-3.09674e-14 0 0)
(-7.00592e-14 0 0)
(-3.09926e-14 0 0)
(-8.80692e-14 0 0)
(-2.00921e-14 0 0)
(-6.42286e-14 0 0)
(-5.33451e-14 0 0)
(-5.39971e-14 0 0)
(-5.68185e-14 0 0)
(-6.21516e-14 0 0)
(-9.41048e-14 0 0)
(-4.60394e-14 0 0)
(-1.0284e-13 0 0)
(-3.99831e-14 0 0)
(-8.14069e-14 0 0)
(-2.92538e-14 0 0)
(-6.2749e-14 0 0)
(-6.89277e-15 0 0)
(-8.65142e-14 0 0)
(-2.68161e-16 0 0)
(-7.65292e-14 0 0)
(-4.46516e-14 0 0)
(-8.57582e-14 0 0)
(-8.32714e-14 0 0)
(-8.96329e-14 0 0)
(-9.14969e-14 0 0)
(-7.44652e-14 0 0)
(-1.26564e-13 0 0)
(-6.06767e-14 0 0)
(-1.12311e-13 0 0)
(-1.01327e-13 0 0)
(-8.70166e-14 0 0)
(-1.13586e-13 0 0)
(-5.86245e-14 0 0)
(-1.37138e-13 0 0)
(-2.20487e-14 0 0)
(-1.09005e-13 0 0)
(-4.36404e-14 0 0)
(-9.97723e-14 0 0)
(-6.06265e-14 0 0)
(-9.17015e-14 0 0)
(-8.28662e-14 0 0)
(-8.21051e-14 0 0)
(-6.37234e-14 0 0)
(-6.78485e-14 0 0)
(-7.93885e-14 0 0)
(-6.59092e-14 0 0)
(-8.48471e-14 0 0)
(-7.65298e-14 0 0)
(-8.55783e-14 0 0)
(-5.86201e-14 0 0)
(-5.88996e-14 0 0)
(-4.45178e-14 0 0)
(-3.71277e-14 0 0)
(-2.84971e-14 0 0)
(-2.82712e-14 0 0)
(-2.58471e-14 0 0)
(-4.79322e-14 0 0)
(-2.92036e-14 0 0)
(-6.45168e-14 0 0)
(3.95347e-15 0 0)
(-3.64005e-14 0 0)
(-4.03336e-14 0 0)
(-4.26759e-15 0 0)
(-2.15753e-14 0 0)
(4.4344e-15 0 0)
(-8.22562e-15 0 0)
(-2.94038e-14 0 0)
(-1.66186e-14 0 0)
(-4.57796e-14 0 0)
(-3.64803e-14 0 0)
(-6.65608e-14 0 0)
(-3.49631e-14 0 0)
(-4.65615e-14 0 0)
(-6.23352e-14 0 0)
(-3.39225e-14 0 0)
(-5.96268e-14 0 0)
(-6.37147e-14 0 0)
(-5.32323e-14 0 0)
(-6.57962e-14 0 0)
(-4.03715e-14 0 0)
(-6.10313e-14 0 0)
(-1.45205e-14 0 0)
(-7.78626e-14 0 0)
(-2.05726e-14 0 0)
(-7.59483e-14 0 0)
(-3.62088e-14 0 0)
(-5.75915e-14 0 0)
(-5.92298e-14 0 0)
(-3.27562e-14 0 0)
(-3.97528e-14 0 0)
(-4.83335e-14 0 0)
(-4.10444e-14 0 0)
(-6.25359e-14 0 0)
(-4.08943e-14 0 0)
(-9.9329e-14 0 0)
(-2.13671e-14 0 0)
(-8.92688e-14 0 0)
(-5.93974e-14 0 0)
(-8.02159e-14 0 0)
(-4.67163e-14 0 0)
(-6.58714e-14 0 0)
(-5.6785e-14 0 0)
(-7.49288e-14 0 0)
(-7.09245e-14 0 0)
(-4.86098e-14 0 0)
(-5.67599e-14 0 0)
(-8.85584e-14 0 0)
(-5.5573e-14 0 0)
(-9.5087e-14 0 0)
(-4.6591e-14 0 0)
(-7.26507e-14 0 0)
(-6.33973e-14 0 0)
(-5.90125e-14 0 0)
(-4.35687e-14 0 0)
(-1.48085e-14 0 0)
(9.40383e-16 0 0)
(2.95459e-14 0 0)
(-1.42858e-14 0 0)
(4.97962e-14 0 0)
(2.09445e-14 0 0)
(7.53256e-14 0 0)
(3.16863e-14 0 0)
(7.35534e-14 0 0)
(1.23847e-14 0 0)
(6.92107e-14 0 0)
(1.96991e-14 0 0)
(7.68426e-14 0 0)
(2.24516e-15 0 0)
(7.43722e-14 0 0)
(-5.60433e-15 0 0)
(4.05717e-14 0 0)
(1.56656e-14 0 0)
(4.76186e-14 0 0)
(2.21316e-14 0 0)
(3.46076e-14 0 0)
(4.41456e-14 0 0)
(5.28935e-14 0 0)
(6.41621e-14 0 0)
(3.89671e-14 0 0)
(6.00698e-14 0 0)
(1.31496e-14 0 0)
(4.99717e-14 0 0)
(-7.26798e-15 0 0)
(4.72591e-14 0 0)
(2.02004e-14 0 0)
(3.33328e-14 0 0)
(2.9082e-14 0 0)
(2.79996e-14 0 0)
(1.53477e-14 0 0)
(5.39604e-15 0 0)
(3.78263e-15 0 0)
(2.69923e-14 0 0)
(2.92492e-14 0 0)
(6.19216e-14 0 0)
(1.72287e-14 0 0)
(5.0649e-14 0 0)
(5.58416e-15 0 0)
(3.62333e-14 0 0)
(-5.8594e-15 0 0)
(6.74384e-14 0 0)
(2.27586e-14 0 0)
(5.84147e-14 0 0)
(4.12327e-14 0 0)
(7.64833e-14 0 0)
(1.21089e-14 0 0)
(8.10139e-14 0 0)
(1.98704e-14 0 0)
(3.75919e-14 0 0)
(2.23905e-14 0 0)
(3.70567e-14 0 0)
(1.36092e-14 0 0)
(4.54911e-14 0 0)
(4.83208e-15 0 0)
(4.88891e-14 0 0)
(-1.89418e-14 0 0)
(5.46821e-14 0 0)
(-8.2002e-15 0 0)
(-6.32378e-15 0 0)
(5.34959e-16 0 0)
(-3.31444e-15 0 0)
(2.03631e-14 0 0)
(-3.35162e-14 0 0)
(4.38148e-14 0 0)
(-3.29352e-14 0 0)
(4.8103e-14 0 0)
(-5.30515e-14 0 0)
(6.85916e-14 0 0)
(-1.23418e-14 0 0)
(8.85956e-14 0 0)
(-3.59805e-15 0 0)
(9.14672e-14 0 0)
(3.43601e-15 0 0)
(6.6749e-14 0 0)
(1.1929e-14 0 0)
(5.16773e-14 0 0)
(3.08251e-14 0 0)
(6.49393e-14 0 0)
(8.70644e-15 0 0)
(6.81448e-14 0 0)
(-1.48622e-14 0 0)
(9.38538e-14 0 0)
(2.23448e-14 0 0)
(5.1694e-14 0 0)
(4.59597e-14 0 0)
(8.25481e-14 0 0)
(7.05988e-14 0 0)
(6.12991e-14 0 0)
(8.93068e-14 0 0)
(8.65817e-14 0 0)
(1.20098e-13 0 0)
(8.38653e-14 0 0)
(1.45151e-13 0 0)
(9.55725e-14 0 0)
(1.64607e-13 0 0)
(1.27672e-13 0 0)
(1.40132e-13 0 0)
(1.37879e-13 0 0)
(1.29365e-13 0 0)
(1.44604e-13 0 0)
(1.17256e-13 0 0)
(1.54865e-13 0 0)
(1.35291e-13 0 0)
(1.22841e-13 0 0)
(1.5458e-13 0 0)
(1.58351e-13 0 0)
(1.34088e-13 0 0)
(1.49456e-13 0 0)
(1.37741e-13 0 0)
(1.02845e-13 0 0)
(1.18309e-13 0 0)
(6.69711e-14 0 0)
(1.23191e-13 0 0)
(5.58324e-14 0 0)
(1.51659e-13 0 0)
(7.03985e-14 0 0)
(1.28533e-13 0 0)
(5.98322e-14 0 0)
(7.56854e-14 0 0)
(8.35515e-14 0 0)
(9.77955e-14 0 0)
(5.60332e-14 0 0)
(1.2722e-13 0 0)
(9.17648e-14 0 0)
(9.91164e-14 0 0)
(1.13031e-13 0 0)
(1.15965e-13 0 0)
(1.13311e-13 0 0)
(1.17871e-13 0 0)
(1.07246e-13 0 0)
(1.34827e-13 0 0)
(1.26598e-13 0 0)
(9.64084e-14 0 0)
(1.28027e-13 0 0)
(7.6434e-14 0 0)
(1.31203e-13 0 0)
(7.92133e-14 0 0)
(1.24202e-13 0 0)
(7.30235e-14 0 0)
(1.37347e-13 0 0)
(9.50418e-14 0 0)
(1.07944e-13 0 0)
(9.20152e-14 0 0)
(6.71089e-14 0 0)
(9.14381e-14 0 0)
(2.25709e-14 0 0)
(1.23333e-13 0 0)
(3.12854e-14 0 0)
(1.39491e-13 0 0)
(5.34291e-14 0 0)
(1.35078e-13 0 0)
(5.80893e-14 0 0)
(8.95617e-14 0 0)
(7.70565e-14 0 0)
(1.14443e-13 0 0)
(5.96652e-14 0 0)
(1.32582e-13 0 0)
(7.46534e-14 0 0)
(1.20107e-13 0 0)
(1.19973e-13 0 0)
(1.37047e-13 0 0)
(1.42175e-13 0 0)
(8.11823e-14 0 0)
(1.63633e-13 0 0)
(1.2068e-13 0 0)
(1.27325e-13 0 0)
(1.38765e-13 0 0)
(1.46902e-13 0 0)
(1.25528e-13 0 0)
(1.55893e-13 0 0)
(1.45273e-13 0 0)
(1.71575e-13 0 0)
(1.11852e-13 0 0)
(1.94258e-13 0 0)
(1.44245e-13 0 0)
(1.65343e-13 0 0)
(1.64102e-13 0 0)
(1.93008e-13 0 0)
(1.40312e-13 0 0)
(2.10517e-13 0 0)
(1.51613e-13 0 0)
(1.87266e-13 0 0)
(1.65857e-13 0 0)
(1.5064e-13 0 0)
(1.84757e-13 0 0)
(1.7792e-13 0 0)
(1.59834e-13 0 0)
(1.55839e-13 0 0)
(1.20989e-13 0 0)
(1.72114e-13 0 0)
(1.28521e-13 0 0)
(1.51868e-13 0 0)
(1.47016e-13 0 0)
(1.81004e-13 0 0)
(1.69281e-13 0 0)
(1.95504e-13 0 0)
(1.67918e-13 0 0)
(1.63158e-13 0 0)
(2.01142e-13 0 0)
(1.86459e-13 0 0)
(1.79187e-13 0 0)
(2.01251e-13 0 0)
(1.81067e-13 0 0)
(2.03491e-13 0 0)
(1.69101e-13 0 0)
(1.50539e-13 0 0)
(1.70233e-13 0 0)
(1.46038e-13 0 0)
(1.58915e-13 0 0)
(1.8164e-13 0 0)
(1.92156e-13 0 0)
(1.45457e-13 0 0)
(2.09008e-13 0 0)
(1.25616e-13 0 0)
(1.97944e-13 0 0)
(1.33357e-13 0 0)
(1.40775e-13 0 0)
(1.36733e-13 0 0)
(1.31994e-13 0 0)
(1.46296e-13 0 0)
(1.17202e-13 0 0)
(1.29009e-13 0 0)
(7.73535e-14 0 0)
(1.27224e-13 0 0)
(5.25098e-14 0 0)
(1.45899e-13 0 0)
(7.95436e-14 0 0)
(1.12529e-13 0 0)
(8.41869e-14 0 0)
(9.71603e-14 0 0)
(9.23414e-14 0 0)
(1.12086e-13 0 0)
(6.41666e-14 0 0)
(1.36123e-13 0 0)
(8.35682e-14 0 0)
(9.58399e-14 0 0)
(1.01164e-13 0 0)
(1.14402e-13 0 0)
(1.05219e-13 0 0)
(1.05545e-13 0 0)
(8.73215e-14 0 0)
(8.27158e-14 0 0)
(9.96181e-14 0 0)
(9.61113e-14 0 0)
(1.2223e-13 0 0)
(5.53601e-14 0 0)
(1.17406e-13 0 0)
(6.43546e-14 0 0)
(9.65752e-14 0 0)
(7.34535e-14 0 0)
(1.13014e-13 0 0)
(8.1232e-14 0 0)
(1.10435e-13 0 0)
(1.00496e-13 0 0)
(1.33686e-13 0 0)
(1.17616e-13 0 0)
(1.64854e-13 0 0)
(1.06712e-13 0 0)
(1.76423e-13 0 0)
(1.20768e-13 0 0)
(1.61602e-13 0 0)
(1.33703e-13 0 0)
(1.51868e-13 0 0)
(1.79036e-13 0 0)
(1.71597e-13 0 0)
(3.0804e-13 0 0)
(3.37412e-13 0 0)
(5.06065e-13 0 0)
(6.28647e-13 0 0)
(9.23584e-13 0 0)
(1.29827e-12 0 0)
(1.91073e-12 0 0)
(2.7056e-12 0 0)
(4.0555e-12 0 0)
(5.86009e-12 0 0)
(8.65252e-12 0 0)
(1.26672e-11 0 0)
(1.85963e-11 0 0)
(2.71122e-11 0 0)
(3.95203e-11 0 0)
(5.74604e-11 0 0)
(8.32712e-11 0 0)
(1.20518e-10 0 0)
(1.73781e-10 0 0)
(2.49975e-10 0 0)
(3.58542e-10 0 0)
(5.12815e-10 0 0)
(7.31285e-10 0 0)
(1.03993e-09 0 0)
(1.4744e-09 0 0)
(2.08439e-09 0 0)
(2.93786e-09 0 0)
(4.12864e-09 0 0)
(5.78466e-09 0 0)
(8.0807e-09 0 0)
(1.1254e-08 0 0)
(1.56261e-08 0 0)
(2.16308e-08 0 0)
(2.98517e-08 0 0)
(4.10704e-08 0 0)
(5.63316e-08 0 0)
(7.70249e-08 0 0)
(1.04993e-07 0 0)
(1.4267e-07 0 0)
(1.93261e-07 0 0)
(2.6097e-07 0 0)
(3.51287e-07 0 0)
(4.71365e-07 0 0)
(6.30475e-07 0 0)
(8.40601e-07 0 0)
(1.11716e-06 0 0)
(1.47994e-06 0 0)
(1.95418e-06 0 0)
(2.57203e-06 0 0)
(3.37419e-06 0 0)
(4.41207e-06 0 0)
(5.75026e-06 0 0)
(7.46965e-06 0 0)
(9.6711e-06 0 0)
(1.24799e-05 0 0)
(1.60508e-05 0 0)
(2.05745e-05 0 0)
(2.62849e-05 0 0)
(3.34675e-05 0 0)
(4.24691e-05 0 0)
(5.37098e-05 0 0)
(6.76955e-05 0 0)
(8.50332e-05 0 0)
(0.000106448 0 0)
(0.0001328 0 0)
(0.00016511 0 0)
(0.000204578 0 0)
(0.000252611 0 0)
(0.00031085 0 0)
(0.000381201 0 0)
(0.000465865 0 0)
(0.000567374 0 0)
(0.000688625 0 0)
(0.000832915 0 0)
(0.00100398 0 0)
(0.00120602 0 0)
(0.00144377 0 0)
(0.00172249 0 0)
(0.00204803 0 0)
(0.00242684 0 0)
(0.00286602 0 0)
(0.00337331 0 0)
(0.00395716 0 0)
(0.00462668 0 0)
(0.00539168 0 0)
(0.00626269 0 0)
(0.00725091 0 0)
(0.00836821 0 0)
(0.00962712 0 0)
(0.0110408 0 0)
(0.0126229 0 0)
(0.0143878 0 0)
(0.0163503 0 0)
(0.0185254 0 0)
(0.0209289 0 0)
(0.0235766 0 0)
(0.0264846 0 0)
(0.0296693 0 0)
(0.0331471 0 0)
(0.0369345 0 0)
(0.0410479 0 0)
(0.0455038 0 0)
(0.0503182 0 0)
(0.0555071 0 0)
(0.0610864 0 0)
(0.0670714 0 0)
(0.0734772 0 0)
(0.0803182 0 0)
(0.0876088 0 0)
(0.0953625 0 0)
(0.103593 0 0)
(0.112312 0 0)
(0.121532 0 0)
(0.131265 0 0)
(0.141521 0 0)
(0.152312 0 0)
(0.163646 0 0)
(0.175533 0 0)
(0.187983 0 0)
(0.201002 0 0)
(0.214599 0 0)
(0.228781 0 0)
(0.243555 0 0)
(0.258926 0 0)
(0.2749 0 0)
(0.291483 0 0)
(0.308679 0 0)
(0.326494 0 0)
(0.34493 0 0)
(0.363992 0 0)
(0.383683 0 0)
(0.404007 0 0)
(0.424965 0 0)
(0.446561 0 0)
(0.468797 0 0)
(0.491674 0 0)
(0.515196 0 0)
(0.539363 0 0)
(0.564177 0 0)
(0.589639 0 0)
(0.615751 0 0)
(0.642514 0 0)
(0.669928 0 0)
(0.697995 0 0)
(0.726715 0 0)
(0.75609 0 0)
(0.786119 0 0)
(0.816803 0 0)
(0.848144 0 0)
(0.880141 0 0)
(0.912794 0 0)
(0.946106 0 0)
(0.980075 0 0)
(1.0147 0 0)
(1.04999 0 0)
(1.08593 0 0)
(1.12254 0 0)
(1.1598 0 0)
(1.19773 0 0)
(1.23631 0 0)
(1.27556 0 0)
(1.31547 0 0)
(1.35604 0 0)
(1.39727 0 0)
(1.43916 0 0)
(1.48172 0 0)
(1.52494 0 0)
(1.56883 0 0)
(1.61338 0 0)
(1.6586 0 0)
(1.70448 0 0)
(1.75103 0 0)
(1.79824 0 0)
(1.84613 0 0)
(1.89468 0 0)
(1.9439 0 0)
(1.99379 0 0)
(2.04435 0 0)
(2.09559 0 0)
(2.14749 0 0)
(2.20007 0 0)
(2.25331 0 0)
(2.30724 0 0)
(2.36184 0 0)
(2.41711 0 0)
(2.47306 0 0)
(2.52969 0 0)
(2.58699 0 0)
(2.64498 0 0)
(2.70364 0 0)
(2.76299 0 0)
(2.82302 0 0)
(2.88373 0 0)
(2.94512 0 0)
(3.0072 0 0)
(3.06996 0 0)
(3.13341 0 0)
(3.19755 0 0)
(3.26238 0 0)
(3.32789 0 0)
(3.3941 0 0)
(3.461 0 0)
(3.52859 0 0)
(3.59688 0 0)
(3.66586 0 0)
(3.73553 0 0)
(3.80591 0 0)
(3.87698 0 0)
(3.94876 0 0)
(4.02123 0 0)
(4.09441 0 0)
(4.16828 0 0)
(4.24287 0 0)
(4.31816 0 0)
(4.39415 0 0)
(4.47086 0 0)
(4.54827 0 0)
(4.6264 0 0)
(4.70523 0 0)
(4.78478 0 0)
(4.86505 0 0)
(4.94603 0 0)
(5.02773 0 0)
(5.11014 0 0)
(5.19328 0 0)
(5.27713 0 0)
(5.36171 0 0)
(5.44702 0 0)
(5.53305 0 0)
(5.6198 0 0)
(5.70728 0 0)
(5.7955 0 0)
(5.88444 0 0)
(5.97412 0 0)
(6.06453 0 0)
(6.15568 0 0)
(6.24756 0 0)
(6.34018 0 0)
(6.43354 0 0)
(6.52765 0 0)
(6.62249 0 0)
(6.71808 0 0)
(6.81442 0 0)
(6.91151 0 0)
(7.00934 0 0)
(7.10793 0 0)
(7.20727 0 0)
(7.30736 0 0)
(7.40821 0 0)
(7.50982 0 0)
(7.61218 0 0)
(7.71531 0 0)
(7.8192 0 0)
(7.92386 0 0)
(8.02928 0 0)
(8.13548 0 0)
(8.24244 0 0)
(8.35017 0 0)
(8.45868 0 0)
(8.56797 0 0)
(8.67803 0 0)
(8.78887 0 0)
(8.9005 0 0)
(9.0129 0 0)
(9.1261 0 0)
(9.24008 0 0)
(9.35485 0 0)
(9.47042 0 0)
(9.58677 0 0)
(9.70393 0 0)
(9.82188 0 0)
(9.94063 0 0)
(10.0602 0 0)
(10.1805 0 0)
(10.3017 0 0)
(10.4237 0 0)
(10.5465 0 0)
(10.6701 0 0)
(10.7945 0 0)
(10.9197 0 0)
(11.0458 0 0)
(11.1727 0 0)
(11.3004 0 0)
(11.4289 0 0)
(11.5582 0 0)
(11.6884 0 0)
(11.8195 0 0)
(11.9513 0 0)
(12.084 0 0)
(12.2176 0 0)
(12.352 0 0)
(12.4872 0 0)
(12.6233 0 0)
(12.7602 0 0)
(12.898 0 0)
(13.0367 0 0)
(13.1762 0 0)
(13.3166 0 0)
(13.4578 0 0)
(13.5999 0 0)
(13.7429 0 0)
(13.8868 0 0)
(14.0315 0 0)
(14.1771 0 0)
(14.3236 0 0)
(14.471 0 0)
(14.6193 0 0)
(14.7685 0 0)
(14.9185 0 0)
(15.0695 0 0)
(15.2213 0 0)
(15.3741 0 0)
(15.5278 0 0)
(15.6824 0 0)
(15.8379 0 0)
(15.9943 0 0)
(16.1516 0 0)
(16.3099 0 0)
(16.469 0 0)
(16.6292 0 0)
(16.7902 0 0)
(16.9522 0 0)
(17.1151 0 0)
(17.279 0 0)
(17.4438 0 0)
(17.6096 0 0)
(17.7763 0 0)
(17.944 0 0)
(18.1126 0 0)
(18.2823 0 0)
(18.4528 0 0)
(18.6244 0 0)
(18.7969 0 0)
(18.9704 0 0)
(19.1449 0 0)
(19.3204 0 0)
(19.4969 0 0)
(19.6744 0 0)
(19.8529 0 0)
(20.0324 0 0)
(20.2129 0 0)
(20.3944 0 0)
(20.5769 0 0)
(20.7605 0 0)
(20.9451 0 0)
(21.1307 0 0)
(21.3174 0 0)
(21.5051 0 0)
(21.6938 0 0)
(21.8836 0 0)
(22.0745 0 0)
(22.2664 0 0)
(22.4594 0 0)
(22.6534 0 0)
(22.8485 0 0)
(23.0447 0 0)
(23.242 0 0)
(23.4404 0 0)
(23.6399 0 0)
(23.8405 0 0)
(24.0422 0 0)
(24.2449 0 0)
(24.4489 0 0)
(24.6539 0 0)
(24.8601 0 0)
(25.0673 0 0)
(25.2759 0 0)
(25.4853 0 0)
(25.6963 0 0)
(25.9079 0 0)
(26.1213 0 0)
(26.3351 0 0)
(26.5511 0 0)
(26.767 0 0)
(26.9855 0 0)
(27.2037 0 0)
(27.4248 0 0)
(27.6452 0 0)
(27.8689 0 0)
(28.0916 0 0)
(28.3178 0 0)
(28.543 0 0)
(28.7717 0 0)
(28.9994 0 0)
(29.2304 0 0)
(29.4609 0 0)
(29.6942 0 0)
(29.9276 0 0)
(30.163 0 0)
(30.3996 0 0)
(30.6368 0 0)
(30.877 0 0)
(31.1159 0 0)
(31.3596 0 0)
(31.6003 0 0)
(31.8476 0 0)
(32.0901 0 0)
(32.3411 0 0)
(32.5853 0 0)
(32.84 0 0)
(33.0861 0 0)
(33.3446 0 0)
(33.5925 0 0)
(33.8548 0 0)
(34.1046 0 0)
(34.3708 0 0)
(34.6225 0 0)
(34.8927 0 0)
(35.1462 0 0)
(35.4204 0 0)
(35.6759 0 0)
(35.9542 0 0)
(36.2117 0 0)
(36.4941 0 0)
(36.7536 0 0)
(37.0402 0 0)
(37.3017 0 0)
(37.5925 0 0)
(37.8561 0 0)
(38.1513 0 0)
(38.4171 0 0)
(38.7167 0 0)
(38.9845 0 0)
(39.2886 0 0)
(39.5588 0 0)
(39.8672 0 0)
(40.1398 0 0)
(40.4526 0 0)
(40.728 0 0)
(41.0449 0 0)
(41.3232 0 0)
(41.6443 0 0)
(41.9257 0 0)
(42.251 0 0)
(42.5355 0 0)
(42.865 0 0)
(43.1528 0 0)
(43.4866 0 0)
(43.7779 0 0)
(44.1159 0 0)
(44.4107 0 0)
(44.7532 0 0)
(45.0515 0 0)
(45.3985 0 0)
(45.7005 0 0)
(46.0521 0 0)
(46.3578 0 0)
(46.7141 0 0)
(47.0237 0 0)
(47.3849 0 0)
(47.6984 0 0)
(48.0645 0 0)
(48.3821 0 0)
(48.7533 0 0)
(49.075 0 0)
(49.4514 0 0)
(49.7775 0 0)
(50.1592 0 0)
(50.4897 0 0)
(50.8769 0 0)
(51.2119 0 0)
(51.6048 0 0)
(51.9446 0 0)
(52.3433 0 0)
(52.6879 0 0)
(53.0927 0 0)
(53.4423 0 0)
(53.8533 0 0)
(54.2082 0 0)
(54.6255 0 0)
(54.9858 0 0)
(55.4099 0 0)
(55.7758 0 0)
(56.2068 0 0)
(56.5785 0 0)
(57.0167 0 0)
(57.3945 0 0)
(57.8402 0 0)
(58.2244 0 0)
(58.6779 0 0)
(59.0688 0 0)
(59.5304 0 0)
(59.9284 0 0)
(60.3985 0 0)
(60.804 0 0)
(61.283 0 0)
(61.6964 0 0)
(62.1848 0 0)
(62.6067 0 0)
(63.1049 0 0)
(63.5359 0 0)
(64.0446 0 0)
(64.4853 0 0)
(65.0051 0 0)
(65.4564 0 0)
(65.988 0 0)
(66.4507 0 0)
(66.995 0 0)
(67.4702 0 0)
(68.0282 0 0)
(68.5168 0 0)
(69.0896 0 0)
(69.5927 0 0)
(70.1814 0 0)
(70.7001 0 0)
(71.3056 0 0)
(71.8405 0 0)
(72.4632 0 0)
(73.0142 0 0)
(73.6533 0 0)
(74.2184 0 0)
(74.8703 0 0)
(75.4439 0 0)
(76.0999 0 0)
(76.6681 0 0)
(77.3126 0 0)
(77.844 0 0)
(78.4434 0 0)
(78.9317 0 0)
(79.4947 0 0)
(79.9569 0 0)
(80.5038 0 0)
(80.9587 0 0)
(81.5064 0 0)
(81.9659 0 0)
(82.5225 0 0)
(82.9912 0 0)
(83.5578 0 0)
(84.0353 0 0)
(84.6098 0 0)
(85.0934 0 0)
(85.6729 0 0)
(86.16 0 0)
(86.7426 0 0)
(87.2313 0 0)
(87.8159 0 0)
(88.3057 0 0)
(88.8922 0 0)
(89.383 0 0)
(89.9714 0 0)
(90.4636 0 0)
(91.054 0 0)
(91.5477 0 0)
(92.1404 0 0)
(92.6357 0 0)
(93.2305 0 0)
(93.7272 0 0)
(94.324 0 0)
(94.8218 0 0)
(95.4205 0 0)
(95.9191 0 0)
(96.5193 0 0)
(97.0183 0 0)
(97.6199 0 0)
(98.119 0 0)
(98.7216 0 0)
(99.2205 0 0)
(99.824 0 0)
(100.322 0 0)
(100.926 0 0)
(101.424 0 0)
(102.028 0 0)
(102.525 0 0)
(103.129 0 0)
(103.624 0 0)
(104.229 0 0)
(104.722 0 0)
(105.326 0 0)
(105.818 0 0)
(106.421 0 0)
(106.91 0 0)
(107.513 0 0)
(107.999 0 0)
(108.6 0 0)
(109.082 0 0)
(109.681 0 0)
(110.159 0 0)
(110.755 0 0)
(111.227 0 0)
(111.819 0 0)
(112.283 0 0)
(112.868 0 0)
(113.323 0 0)
(113.9 0 0)
(114.343 0 0)
(114.909 0 0)
(115.337 0 0)
(115.889 0 0)
(116.299 0 0)
(116.835 0 0)
(117.225 0 0)
(117.742 0 0)
(118.109 0 0)
(118.609 0 0)
(118.958 0 0)
(119.436 0 0)
(119.75 0 0)
(120.197 0 0)
(120.452 0 0)
(120.858 0 0)
(121.04 0 0)
(121.399 0 0)
(121.492 0 0)
(121.796 0 0)
(121.783 0 0)
(122.013 0 0)
(121.855 0 0)
(121.984 0 0)
(121.619 0 0)
(121.615 0 0)
(120.983 0 0)
(120.764 0 0)
(119.912 0 0)
(120.693 0 0)
)
;

boundaryField
{
    sideLeft
    {
        type            symmetryPlane;
    }
    sideRight
    {
        type            calculated;
        value           uniform (120.235 0 0);
    }
    topbottom
    {
        type            empty;
    }
    frontback
    {
        type            empty;
    }
}


// ************************************************************************* //
