/*--------------------------------*- C++ -*----------------------------------*\
| =========                 |                                                 |
| \\      /  F ield         | OpenFOAM: The Open Source CFD Toolbox           |
|  \\    /   O peration     | Version:  2.4.0                                 |
|   \\  /    A nd           | Web:      www.OpenFOAM.org                      |
|    \\/     M anipulation  |                                                 |
\*---------------------------------------------------------------------------*/
FoamFile
{
    version     2.0;
    format      ascii;
    class       volVectorField;
    location    "0.17";
    object      U.waterMean;
}
// * * * * * * * * * * * * * * * * * * * * * * * * * * * * * * * * * * * * * //

dimensions      [0 1 -1 0 0 0 0];

internalField   nonuniform List<vector> 
1000
(
(-6.56533e-14 0 0)
(-3.07082e-14 0 0)
(-6.93194e-14 0 0)
(-3.14523e-14 0 0)
(-8.69866e-14 0 0)
(-1.89009e-14 0 0)
(-6.40071e-14 0 0)
(-5.3621e-14 0 0)
(-5.56271e-14 0 0)
(-5.7086e-14 0 0)
(-6.08058e-14 0 0)
(-9.42636e-14 0 0)
(-4.60854e-14 0 0)
(-1.02468e-13 0 0)
(-4.05056e-14 0 0)
(-8.22637e-14 0 0)
(-2.94085e-14 0 0)
(-6.18169e-14 0 0)
(-6.91784e-15 0 0)
(-8.61004e-14 0 0)
(6.26287e-16 0 0)
(-7.6805e-14 0 0)
(-4.56004e-14 0 0)
(-8.51689e-14 0 0)
(-8.32254e-14 0 0)
(-8.95577e-14 0 0)
(-9.18355e-14 0 0)
(-7.58111e-14 0 0)
(-1.26405e-13 0 0)
(-6.10529e-14 0 0)
(-1.12963e-13 0 0)
(-1.00956e-13 0 0)
(-8.66738e-14 0 0)
(-1.12604e-13 0 0)
(-5.75963e-14 0 0)
(-1.38099e-13 0 0)
(-2.29975e-14 0 0)
(-1.08742e-13 0 0)
(-4.38034e-14 0 0)
(-9.97221e-14 0 0)
(-6.03715e-14 0 0)
(-9.18269e-14 0 0)
(-8.18338e-14 0 0)
(-8.16244e-14 0 0)
(-6.50985e-14 0 0)
(-6.98213e-14 0 0)
(-7.95724e-14 0 0)
(-6.458e-14 0 0)
(-8.35806e-14 0 0)
(-7.61536e-14 0 0)
(-8.58082e-14 0 0)
(-5.91341e-14 0 0)
(-5.81556e-14 0 0)
(-4.2871e-14 0 0)
(-3.7111e-14 0 0)
(-2.94208e-14 0 0)
(-2.94165e-14 0 0)
(-2.58262e-14 0 0)
(-4.78987e-14 0 0)
(-3.02652e-14 0 0)
(-6.52399e-14 0 0)
(3.90331e-15 0 0)
(-3.63253e-14 0 0)
(-4.02918e-14 0 0)
(-3.66572e-15 0 0)
(-2.09776e-14 0 0)
(3.61936e-15 0 0)
(-9.78045e-15 0 0)
(-2.95166e-14 0 0)
(-1.58286e-14 0 0)
(-4.48308e-14 0 0)
(-3.71073e-14 0 0)
(-6.70164e-14 0 0)
(-3.41523e-14 0 0)
(-4.63149e-14 0 0)
(-6.22266e-14 0 0)
(-3.45955e-14 0 0)
(-5.97689e-14 0 0)
(-6.28579e-14 0 0)
(-5.1644e-14 0 0)
(-6.60554e-14 0 0)
(-4.25449e-14 0 0)
(-6.01577e-14 0 0)
(-1.39771e-14 0 0)
(-7.88448e-14 0 0)
(-2.06604e-14 0 0)
(-7.54886e-14 0 0)
(-3.57783e-14 0 0)
(-5.86699e-14 0 0)
(-5.99111e-14 0 0)
(-3.24595e-14 0 0)
(-4.0643e-14 0 0)
(-4.802e-14 0 0)
(-3.96568e-14 0 0)
(-6.33342e-14 0 0)
(-4.18055e-14 0 0)
(-9.98473e-14 0 0)
(-2.14967e-14 0 0)
(-8.80609e-14 0 0)
(-5.82103e-14 0 0)
(-8.01825e-14 0 0)
(-4.68584e-14 0 0)
(-6.73134e-14 0 0)
(-5.7621e-14 0 0)
(-7.43562e-14 0 0)
(-7.00635e-14 0 0)
(-4.92744e-14 0 0)
(-5.77797e-14 0 0)
(-8.72543e-14 0 0)
(-5.55271e-14 0 0)
(-9.47986e-14 0 0)
(-4.58512e-14 0 0)
(-7.35243e-14 0 0)
(-6.42123e-14 0 0)
(-5.99487e-14 0 0)
(-4.39031e-14 0 0)
(-1.38932e-14 0 0)
(3.41056e-15 0 0)
(2.95459e-14 0 0)
(-1.57445e-14 0 0)
(4.94368e-14 0 0)
(2.00375e-14 0 0)
(7.70643e-14 0 0)
(3.36382e-14 0 0)
(7.31355e-14 0 0)
(1.04913e-14 0 0)
(6.80906e-14 0 0)
(1.97994e-14 0 0)
(7.78331e-14 0 0)
(3.19394e-15 0 0)
(7.39375e-14 0 0)
(-5.58343e-15 0 0)
(4.15247e-14 0 0)
(1.54315e-14 0 0)
(4.68913e-14 0 0)
(2.29006e-14 0 0)
(3.38218e-14 0 0)
(4.27036e-14 0 0)
(5.29604e-14 0 0)
(6.48977e-14 0 0)
(3.86745e-14 0 0)
(6.03917e-14 0 0)
(1.38184e-14 0 0)
(4.87387e-14 0 0)
(-7.5731e-15 0 0)
(4.80825e-14 0 0)
(1.91471e-14 0 0)
(3.13851e-14 0 0)
(2.98135e-14 0 0)
(2.94876e-14 0 0)
(1.54522e-14 0 0)
(6.40752e-15 0 0)
(4.17552e-15 0 0)
(2.55419e-14 0 0)
(2.78783e-14 0 0)
(6.08349e-14 0 0)
(1.84492e-14 0 0)
(5.18109e-14 0 0)
(4.38041e-15 0 0)
(3.52552e-14 0 0)
(-4.65566e-15 0 0)
(6.88679e-14 0 0)
(2.26249e-14 0 0)
(5.68013e-14 0 0)
(4.05807e-14 0 0)
(7.93212e-14 0 0)
(1.30535e-14 0 0)
(7.95427e-14 0 0)
(1.96363e-14 0 0)
(3.79012e-14 0 0)
(2.20854e-14 0 0)
(3.6459e-14 0 0)
(1.36552e-14 0 0)
(4.68454e-14 0 0)
(5.76833e-15 0 0)
(4.73008e-14 0 0)
(-1.87454e-14 0 0)
(5.52421e-14 0 0)
(-8.56801e-15 0 0)
(-5.7637e-15 0 0)
(-4.97417e-16 0 0)
(-4.27158e-15 0 0)
(2.16797e-14 0 0)
(-3.2651e-14 0 0)
(4.29287e-14 0 0)
(-3.34451e-14 0 0)
(4.77143e-14 0 0)
(-5.2458e-14 0 0)
(6.98747e-14 0 0)
(-1.21955e-14 0 0)
(8.77722e-14 0 0)
(-3.25114e-15 0 0)
(9.11245e-14 0 0)
(2.13195e-15 0 0)
(6.79946e-14 0 0)
(1.44535e-14 0 0)
(5.19406e-14 0 0)
(2.98219e-14 0 0)
(6.42078e-14 0 0)
(7.08055e-15 0 0)
(6.83162e-14 0 0)
(-1.3391e-14 0 0)
(9.34567e-14 0 0)
(2.19101e-14 0 0)
(5.08079e-14 0 0)
(4.70673e-14 0 0)
(8.45251e-14 0 0)
(6.98799e-14 0 0)
(6.03796e-14 0 0)
(8.91271e-14 0 0)
(8.70164e-14 0 0)
(1.19684e-13 0 0)
(8.2394e-14 0 0)
(1.45105e-13 0 0)
(9.61702e-14 0 0)
(1.64595e-13 0 0)
(1.2712e-13 0 0)
(1.39329e-13 0 0)
(1.38201e-13 0 0)
(1.30079e-13 0 0)
(1.45879e-13 0 0)
(1.18786e-13 0 0)
(1.53243e-13 0 0)
(1.33992e-13 0 0)
(1.23647e-13 0 0)
(1.54326e-13 0 0)
(1.58723e-13 0 0)
(1.34193e-13 0 0)
(1.50271e-13 0 0)
(1.38828e-13 0 0)
(1.02164e-13 0 0)
(1.17804e-13 0 0)
(6.64486e-14 0 0)
(1.23546e-13 0 0)
(5.71574e-14 0 0)
(1.51884e-13 0 0)
(7.04153e-14 0 0)
(1.29139e-13 0 0)
(5.96566e-14 0 0)
(7.54053e-14 0 0)
(8.39862e-14 0 0)
(9.76116e-14 0 0)
(5.42317e-14 0 0)
(1.26576e-13 0 0)
(9.22496e-14 0 0)
(9.9572e-14 0 0)
(1.13277e-13 0 0)
(1.14761e-13 0 0)
(1.12688e-13 0 0)
(1.19216e-13 0 0)
(1.0794e-13 0 0)
(1.34033e-13 0 0)
(1.26297e-13 0 0)
(9.57815e-14 0 0)
(1.27563e-13 0 0)
(7.75291e-14 0 0)
(1.30823e-13 0 0)
(7.82687e-14 0 0)
(1.25774e-13 0 0)
(7.33704e-14 0 0)
(1.36817e-13 0 0)
(9.5606e-14 0 0)
(1.08629e-13 0 0)
(9.24081e-14 0 0)
(6.63816e-14 0 0)
(9.04015e-14 0 0)
(2.18269e-14 0 0)
(1.22518e-13 0 0)
(3.23094e-14 0 0)
(1.40465e-13 0 0)
(5.38346e-14 0 0)
(1.35525e-13 0 0)
(5.70945e-14 0 0)
(8.90894e-14 0 0)
(7.86281e-14 0 0)
(1.14593e-13 0 0)
(5.90341e-14 0 0)
(1.31487e-13 0 0)
(7.40599e-14 0 0)
(1.2037e-13 0 0)
(1.21177e-13 0 0)
(1.38401e-13 0 0)
(1.41506e-13 0 0)
(8.15794e-14 0 0)
(1.63884e-13 0 0)
(1.20939e-13 0 0)
(1.26828e-13 0 0)
(1.37958e-13 0 0)
(1.47726e-13 0 0)
(1.26101e-13 0 0)
(1.55701e-13 0 0)
(1.44767e-13 0 0)
(1.71353e-13 0 0)
(1.11167e-13 0 0)
(1.9432e-13 0 0)
(1.45277e-13 0 0)
(1.66434e-13 0 0)
(1.63701e-13 0 0)
(1.9101e-13 0 0)
(1.39367e-13 0 0)
(2.11457e-13 0 0)
(1.52445e-13 0 0)
(1.86919e-13 0 0)
(1.65682e-13 0 0)
(1.51053e-13 0 0)
(1.85008e-13 0 0)
(1.77573e-13 0 0)
(1.60131e-13 0 0)
(1.54756e-13 0 0)
(1.19292e-13 0 0)
(1.72716e-13 0 0)
(1.29959e-13 0 0)
(1.52069e-13 0 0)
(1.46849e-13 0 0)
(1.80912e-13 0 0)
(1.69272e-13 0 0)
(1.95804e-13 0 0)
(1.68382e-13 0 0)
(1.62372e-13 0 0)
(1.99248e-13 0 0)
(1.87796e-13 0 0)
(1.80374e-13 0 0)
(2.01786e-13 0 0)
(1.82271e-13 0 0)
(2.02019e-13 0 0)
(1.68282e-13 0 0)
(1.5051e-13 0 0)
(1.69477e-13 0 0)
(1.4572e-13 0 0)
(1.59341e-13 0 0)
(1.81723e-13 0 0)
(1.91366e-13 0 0)
(1.46661e-13 0 0)
(2.09739e-13 0 0)
(1.2468e-13 0 0)
(1.9753e-13 0 0)
(1.34318e-13 0 0)
(1.41879e-13 0 0)
(1.35847e-13 0 0)
(1.30498e-13 0 0)
(1.46209e-13 0 0)
(1.1716e-13 0 0)
(1.28081e-13 0 0)
(7.82897e-14 0 0)
(1.28328e-13 0 0)
(5.26519e-14 0 0)
(1.45498e-13 0 0)
(7.95395e-14 0 0)
(1.14376e-13 0 0)
(8.39111e-14 0 0)
(9.46149e-14 0 0)
(9.2216e-14 0 0)
(1.11885e-13 0 0)
(6.41624e-14 0 0)
(1.37703e-13 0 0)
(8.34721e-14 0 0)
(9.60906e-14 0 0)
(1.01123e-13 0 0)
(1.13929e-13 0 0)
(1.06665e-13 0 0)
(1.06025e-13 0 0)
(8.64228e-14 0 0)
(8.22476e-14 0 0)
(9.99483e-14 0 0)
(9.60027e-14 0 0)
(1.21686e-13 0 0)
(5.53517e-14 0 0)
(1.17385e-13 0 0)
(6.62605e-14 0 0)
(9.81217e-14 0 0)
(7.1882e-14 0 0)
(1.12278e-13 0 0)
(8.17921e-14 0 0)
(1.0901e-13 0 0)
(1.00237e-13 0 0)
(1.34158e-13 0 0)
(1.17353e-13 0 0)
(1.64386e-13 0 0)
(1.05182e-13 0 0)
(1.76544e-13 0 0)
(1.21604e-13 0 0)
(1.61882e-13 0 0)
(1.32717e-13 0 0)
(1.51061e-13 0 0)
(1.78785e-13 0 0)
(1.71329e-13 0 0)
(3.07643e-13 0 0)
(3.35636e-13 0 0)
(5.05609e-13 0 0)
(6.28045e-13 0 0)
(9.21143e-13 0 0)
(1.29468e-12 0 0)
(1.90578e-12 0 0)
(2.69907e-12 0 0)
(4.04629e-12 0 0)
(5.84469e-12 0 0)
(8.62906e-12 0 0)
(1.26354e-11 0 0)
(1.85503e-11 0 0)
(2.70449e-11 0 0)
(3.94235e-11 0 0)
(5.73226e-11 0 0)
(8.30743e-11 0 0)
(1.20237e-10 0 0)
(1.73382e-10 0 0)
(2.49411e-10 0 0)
(3.57748e-10 0 0)
(5.11698e-10 0 0)
(7.29718e-10 0 0)
(1.03774e-09 0 0)
(1.47135e-09 0 0)
(2.08016e-09 0 0)
(2.932e-09 0 0)
(4.12055e-09 0 0)
(5.77353e-09 0 0)
(8.06546e-09 0 0)
(1.12332e-08 0 0)
(1.55978e-08 0 0)
(2.15923e-08 0 0)
(2.97996e-08 0 0)
(4.10002e-08 0 0)
(5.62373e-08 0 0)
(7.68985e-08 0 0)
(1.04824e-07 0 0)
(1.42446e-07 0 0)
(1.92964e-07 0 0)
(2.60577e-07 0 0)
(3.5077e-07 0 0)
(4.70687e-07 0 0)
(6.29589e-07 0 0)
(8.39447e-07 0 0)
(1.11567e-06 0 0)
(1.478e-06 0 0)
(1.95169e-06 0 0)
(2.56883e-06 0 0)
(3.3701e-06 0 0)
(4.40685e-06 0 0)
(5.74363e-06 0 0)
(7.46127e-06 0 0)
(9.66054e-06 0 0)
(1.24666e-05 0 0)
(1.60342e-05 0 0)
(2.05539e-05 0 0)
(2.62593e-05 0 0)
(3.34358e-05 0 0)
(4.24302e-05 0 0)
(5.3662e-05 0 0)
(6.76372e-05 0 0)
(8.49623e-05 0 0)
(0.000106362 0 0)
(0.000132696 0 0)
(0.000164986 0 0)
(0.000204429 0 0)
(0.000252433 0 0)
(0.000310639 0 0)
(0.000380951 0 0)
(0.000465571 0 0)
(0.00056703 0 0)
(0.000688224 0 0)
(0.000832448 0 0)
(0.00100344 0 0)
(0.0012054 0 0)
(0.00144306 0 0)
(0.00172168 0 0)
(0.0020471 0 0)
(0.00242579 0 0)
(0.00286483 0 0)
(0.00337198 0 0)
(0.00395567 0 0)
(0.00462502 0 0)
(0.00538985 0 0)
(0.00626066 0 0)
(0.00724868 0 0)
(0.00836577 0 0)
(0.00962445 0 0)
(0.0110379 0 0)
(0.0126198 0 0)
(0.0143845 0 0)
(0.0163466 0 0)
(0.0185216 0 0)
(0.0209248 0 0)
(0.0235722 0 0)
(0.02648 0 0)
(0.0296644 0 0)
(0.033142 0 0)
(0.0369291 0 0)
(0.0410423 0 0)
(0.0454978 0 0)
(0.050312 0 0)
(0.0555008 0 0)
(0.0610799 0 0)
(0.0670647 0 0)
(0.0734702 0 0)
(0.0803111 0 0)
(0.0876015 0 0)
(0.0953551 0 0)
(0.103585 0 0)
(0.112304 0 0)
(0.121524 0 0)
(0.131257 0 0)
(0.141513 0 0)
(0.152304 0 0)
(0.163638 0 0)
(0.175525 0 0)
(0.187974 0 0)
(0.200994 0 0)
(0.214591 0 0)
(0.228773 0 0)
(0.243546 0 0)
(0.258917 0 0)
(0.274892 0 0)
(0.291475 0 0)
(0.308671 0 0)
(0.326485 0 0)
(0.344922 0 0)
(0.363984 0 0)
(0.383675 0 0)
(0.403998 0 0)
(0.424957 0 0)
(0.446553 0 0)
(0.468789 0 0)
(0.491666 0 0)
(0.515188 0 0)
(0.539355 0 0)
(0.564169 0 0)
(0.589631 0 0)
(0.615743 0 0)
(0.642506 0 0)
(0.669921 0 0)
(0.697988 0 0)
(0.726708 0 0)
(0.756082 0 0)
(0.786112 0 0)
(0.816796 0 0)
(0.848137 0 0)
(0.880134 0 0)
(0.912788 0 0)
(0.946099 0 0)
(0.980068 0 0)
(1.0147 0 0)
(1.04998 0 0)
(1.08593 0 0)
(1.12253 0 0)
(1.1598 0 0)
(1.19772 0 0)
(1.23631 0 0)
(1.27555 0 0)
(1.31546 0 0)
(1.35603 0 0)
(1.39726 0 0)
(1.43916 0 0)
(1.48172 0 0)
(1.52494 0 0)
(1.56882 0 0)
(1.61338 0 0)
(1.65859 0 0)
(1.70447 0 0)
(1.75102 0 0)
(1.79824 0 0)
(1.84612 0 0)
(1.89468 0 0)
(1.9439 0 0)
(1.99379 0 0)
(2.04435 0 0)
(2.09558 0 0)
(2.14748 0 0)
(2.20006 0 0)
(2.25331 0 0)
(2.30723 0 0)
(2.36183 0 0)
(2.41711 0 0)
(2.47306 0 0)
(2.52968 0 0)
(2.58699 0 0)
(2.64497 0 0)
(2.70364 0 0)
(2.76298 0 0)
(2.82301 0 0)
(2.88372 0 0)
(2.94511 0 0)
(3.00719 0 0)
(3.06996 0 0)
(3.13341 0 0)
(3.19755 0 0)
(3.26237 0 0)
(3.32789 0 0)
(3.3941 0 0)
(3.46099 0 0)
(3.52859 0 0)
(3.59687 0 0)
(3.66585 0 0)
(3.73553 0 0)
(3.80591 0 0)
(3.87698 0 0)
(3.94875 0 0)
(4.02123 0 0)
(4.0944 0 0)
(4.16828 0 0)
(4.24287 0 0)
(4.31815 0 0)
(4.39415 0 0)
(4.47086 0 0)
(4.54827 0 0)
(4.62639 0 0)
(4.70523 0 0)
(4.78478 0 0)
(4.86504 0 0)
(4.94603 0 0)
(5.02772 0 0)
(5.11014 0 0)
(5.19327 0 0)
(5.27713 0 0)
(5.36171 0 0)
(5.44701 0 0)
(5.53304 0 0)
(5.6198 0 0)
(5.70728 0 0)
(5.7955 0 0)
(5.88444 0 0)
(5.97412 0 0)
(6.06453 0 0)
(6.15567 0 0)
(6.24756 0 0)
(6.34018 0 0)
(6.43354 0 0)
(6.52764 0 0)
(6.62249 0 0)
(6.71808 0 0)
(6.81442 0 0)
(6.9115 0 0)
(7.00934 0 0)
(7.10793 0 0)
(7.20726 0 0)
(7.30736 0 0)
(7.40821 0 0)
(7.50982 0 0)
(7.61218 0 0)
(7.71531 0 0)
(7.8192 0 0)
(7.92386 0 0)
(8.02928 0 0)
(8.13547 0 0)
(8.24244 0 0)
(8.35017 0 0)
(8.45868 0 0)
(8.56797 0 0)
(8.67803 0 0)
(8.78887 0 0)
(8.9005 0 0)
(9.0129 0 0)
(9.1261 0 0)
(9.24008 0 0)
(9.35485 0 0)
(9.47042 0 0)
(9.58677 0 0)
(9.70393 0 0)
(9.82188 0 0)
(9.94063 0 0)
(10.0602 0 0)
(10.1805 0 0)
(10.3017 0 0)
(10.4237 0 0)
(10.5465 0 0)
(10.6701 0 0)
(10.7945 0 0)
(10.9197 0 0)
(11.0458 0 0)
(11.1727 0 0)
(11.3004 0 0)
(11.4289 0 0)
(11.5582 0 0)
(11.6884 0 0)
(11.8195 0 0)
(11.9513 0 0)
(12.084 0 0)
(12.2176 0 0)
(12.352 0 0)
(12.4872 0 0)
(12.6233 0 0)
(12.7602 0 0)
(12.898 0 0)
(13.0367 0 0)
(13.1762 0 0)
(13.3166 0 0)
(13.4578 0 0)
(13.5999 0 0)
(13.7429 0 0)
(13.8868 0 0)
(14.0315 0 0)
(14.1771 0 0)
(14.3236 0 0)
(14.471 0 0)
(14.6193 0 0)
(14.7685 0 0)
(14.9185 0 0)
(15.0695 0 0)
(15.2213 0 0)
(15.3741 0 0)
(15.5278 0 0)
(15.6824 0 0)
(15.8379 0 0)
(15.9943 0 0)
(16.1516 0 0)
(16.3099 0 0)
(16.469 0 0)
(16.6292 0 0)
(16.7902 0 0)
(16.9522 0 0)
(17.1151 0 0)
(17.279 0 0)
(17.4438 0 0)
(17.6096 0 0)
(17.7763 0 0)
(17.944 0 0)
(18.1126 0 0)
(18.2823 0 0)
(18.4528 0 0)
(18.6244 0 0)
(18.7969 0 0)
(18.9704 0 0)
(19.1449 0 0)
(19.3204 0 0)
(19.4969 0 0)
(19.6744 0 0)
(19.8529 0 0)
(20.0324 0 0)
(20.2129 0 0)
(20.3944 0 0)
(20.5769 0 0)
(20.7605 0 0)
(20.9451 0 0)
(21.1307 0 0)
(21.3174 0 0)
(21.5051 0 0)
(21.6938 0 0)
(21.8836 0 0)
(22.0745 0 0)
(22.2664 0 0)
(22.4594 0 0)
(22.6534 0 0)
(22.8485 0 0)
(23.0447 0 0)
(23.242 0 0)
(23.4404 0 0)
(23.6399 0 0)
(23.8405 0 0)
(24.0422 0 0)
(24.2449 0 0)
(24.4489 0 0)
(24.6539 0 0)
(24.8601 0 0)
(25.0673 0 0)
(25.2759 0 0)
(25.4853 0 0)
(25.6963 0 0)
(25.9079 0 0)
(26.1213 0 0)
(26.3351 0 0)
(26.5511 0 0)
(26.767 0 0)
(26.9855 0 0)
(27.2037 0 0)
(27.4248 0 0)
(27.6452 0 0)
(27.8689 0 0)
(28.0916 0 0)
(28.3178 0 0)
(28.543 0 0)
(28.7717 0 0)
(28.9994 0 0)
(29.2304 0 0)
(29.4609 0 0)
(29.6942 0 0)
(29.9276 0 0)
(30.163 0 0)
(30.3996 0 0)
(30.6368 0 0)
(30.877 0 0)
(31.1159 0 0)
(31.3596 0 0)
(31.6003 0 0)
(31.8476 0 0)
(32.0901 0 0)
(32.3411 0 0)
(32.5853 0 0)
(32.84 0 0)
(33.0861 0 0)
(33.3446 0 0)
(33.5925 0 0)
(33.8548 0 0)
(34.1046 0 0)
(34.3708 0 0)
(34.6225 0 0)
(34.8927 0 0)
(35.1462 0 0)
(35.4204 0 0)
(35.6759 0 0)
(35.9542 0 0)
(36.2117 0 0)
(36.4941 0 0)
(36.7536 0 0)
(37.0402 0 0)
(37.3017 0 0)
(37.5925 0 0)
(37.8561 0 0)
(38.1514 0 0)
(38.4171 0 0)
(38.7167 0 0)
(38.9845 0 0)
(39.2886 0 0)
(39.5588 0 0)
(39.8672 0 0)
(40.1398 0 0)
(40.4526 0 0)
(40.728 0 0)
(41.0449 0 0)
(41.3232 0 0)
(41.6443 0 0)
(41.9257 0 0)
(42.251 0 0)
(42.5355 0 0)
(42.865 0 0)
(43.1528 0 0)
(43.4866 0 0)
(43.7779 0 0)
(44.116 0 0)
(44.4107 0 0)
(44.7532 0 0)
(45.0515 0 0)
(45.3985 0 0)
(45.7005 0 0)
(46.0521 0 0)
(46.3578 0 0)
(46.7141 0 0)
(47.0237 0 0)
(47.3849 0 0)
(47.6984 0 0)
(48.0645 0 0)
(48.3821 0 0)
(48.7533 0 0)
(49.075 0 0)
(49.4514 0 0)
(49.7775 0 0)
(50.1592 0 0)
(50.4897 0 0)
(50.8769 0 0)
(51.212 0 0)
(51.6048 0 0)
(51.9446 0 0)
(52.3433 0 0)
(52.6879 0 0)
(53.0927 0 0)
(53.4423 0 0)
(53.8533 0 0)
(54.2082 0 0)
(54.6255 0 0)
(54.9858 0 0)
(55.4099 0 0)
(55.7758 0 0)
(56.2068 0 0)
(56.5785 0 0)
(57.0167 0 0)
(57.3945 0 0)
(57.8402 0 0)
(58.2244 0 0)
(58.6779 0 0)
(59.0688 0 0)
(59.5304 0 0)
(59.9284 0 0)
(60.3985 0 0)
(60.804 0 0)
(61.283 0 0)
(61.6964 0 0)
(62.1848 0 0)
(62.6067 0 0)
(63.1049 0 0)
(63.5359 0 0)
(64.0446 0 0)
(64.4853 0 0)
(65.0051 0 0)
(65.4564 0 0)
(65.988 0 0)
(66.4507 0 0)
(66.995 0 0)
(67.4702 0 0)
(68.0282 0 0)
(68.5168 0 0)
(69.0896 0 0)
(69.5927 0 0)
(70.1814 0 0)
(70.7001 0 0)
(71.3056 0 0)
(71.8405 0 0)
(72.4632 0 0)
(73.0142 0 0)
(73.6533 0 0)
(74.2184 0 0)
(74.8703 0 0)
(75.4439 0 0)
(76.0999 0 0)
(76.6681 0 0)
(77.3126 0 0)
(77.844 0 0)
(78.4434 0 0)
(78.9317 0 0)
(79.4947 0 0)
(79.9569 0 0)
(80.5038 0 0)
(80.9587 0 0)
(81.5064 0 0)
(81.9659 0 0)
(82.5225 0 0)
(82.9912 0 0)
(83.5578 0 0)
(84.0353 0 0)
(84.6098 0 0)
(85.0934 0 0)
(85.6729 0 0)
(86.16 0 0)
(86.7426 0 0)
(87.2313 0 0)
(87.8159 0 0)
(88.3057 0 0)
(88.8922 0 0)
(89.383 0 0)
(89.9714 0 0)
(90.4636 0 0)
(91.054 0 0)
(91.5477 0 0)
(92.1404 0 0)
(92.6357 0 0)
(93.2305 0 0)
(93.7272 0 0)
(94.324 0 0)
(94.8218 0 0)
(95.4205 0 0)
(95.9191 0 0)
(96.5193 0 0)
(97.0183 0 0)
(97.6199 0 0)
(98.119 0 0)
(98.7216 0 0)
(99.2205 0 0)
(99.824 0 0)
(100.322 0 0)
(100.926 0 0)
(101.424 0 0)
(102.028 0 0)
(102.525 0 0)
(103.129 0 0)
(103.624 0 0)
(104.229 0 0)
(104.722 0 0)
(105.326 0 0)
(105.818 0 0)
(106.421 0 0)
(106.91 0 0)
(107.513 0 0)
(107.999 0 0)
(108.6 0 0)
(109.082 0 0)
(109.681 0 0)
(110.159 0 0)
(110.755 0 0)
(111.227 0 0)
(111.819 0 0)
(112.283 0 0)
(112.868 0 0)
(113.323 0 0)
(113.9 0 0)
(114.343 0 0)
(114.909 0 0)
(115.337 0 0)
(115.889 0 0)
(116.299 0 0)
(116.835 0 0)
(117.225 0 0)
(117.742 0 0)
(118.109 0 0)
(118.609 0 0)
(118.957 0 0)
(119.436 0 0)
(119.75 0 0)
(120.196 0 0)
(120.452 0 0)
(120.858 0 0)
(121.039 0 0)
(121.398 0 0)
(121.491 0 0)
(121.796 0 0)
(121.782 0 0)
(122.012 0 0)
(121.854 0 0)
(121.983 0 0)
(121.619 0 0)
(121.614 0 0)
(120.983 0 0)
(120.764 0 0)
(119.915 0 0)
(120.693 0 0)
)
;

boundaryField
{
    sideLeft
    {
        type            symmetryPlane;
    }
    sideRight
    {
        type            calculated;
        value           uniform (120.693 0 0);
    }
    topbottom
    {
        type            empty;
    }
    frontback
    {
        type            empty;
    }
}


// ************************************************************************* //
