/*--------------------------------*- C++ -*----------------------------------*\
| =========                 |                                                 |
| \\      /  F ield         | OpenFOAM: The Open Source CFD Toolbox           |
|  \\    /   O peration     | Version:  2.4.0                                 |
|   \\  /    A nd           | Web:      www.OpenFOAM.org                      |
|    \\/     M anipulation  |                                                 |
\*---------------------------------------------------------------------------*/
FoamFile
{
    version     2.0;
    format      ascii;
    class       volVectorField;
    location    "0.17";
    object      U.water;
}
// * * * * * * * * * * * * * * * * * * * * * * * * * * * * * * * * * * * * * //

dimensions      [0 1 -1 0 0 0 0];

internalField   nonuniform List<vector> 
1000
(
(-2.27372e-13 0 0)
(-2.70007e-13 0 0)
(-2.77111e-13 0 0)
(-4.68959e-13 0 0)
(-5.54222e-13 0 0)
(-4.8317e-13 0 0)
(-5.96855e-13 0 0)
(-4.40537e-13 0 0)
(-4.33431e-13 0 0)
(-4.68958e-13 0 0)
(-4.61853e-13 0 0)
(-4.26325e-13 0 0)
(-5.04486e-13 0 0)
(-8.24229e-13 0 0)
(-9.8055e-13 0 0)
(-1.10845e-12 0 0)
(-1.21503e-12 0 0)
(-1.20792e-12 0 0)
(-1.13687e-12 0 0)
(-1.06581e-12 0 0)
(-7.24755e-13 0 0)
(-6.0396e-13 0 0)
(-4.90275e-13 0 0)
(-6.60804e-13 0 0)
(-7.03437e-13 0 0)
(-7.03437e-13 0 0)
(-3.97904e-13 0 0)
(-1.91847e-13 0 0)
(9.64992e-19 0 0)
(-9.8269e-19 0 0)
(-1.20792e-13 0 0)
(-5.68433e-14 0 0)
(-6.39492e-14 0 0)
(-1.13686e-13 0 0)
(-2.77113e-13 0 0)
(-5.258e-13 0 0)
(-6.75017e-13 0 0)
(-5.47117e-13 0 0)
(-3.26851e-13 0 0)
(-2.48689e-13 0 0)
(-2.48691e-13 0 0)
(-1.56319e-13 0 0)
(9.23705e-14 0 0)
(1.06582e-13 0 0)
(-2.13163e-13 0 0)
(-2.55796e-13 0 0)
(-8.52649e-14 0 0)
(1.42108e-13 0 0)
(3.90799e-13 0 0)
(3.4106e-13 0 0)
(2.20269e-13 0 0)
(4.33431e-13 0 0)
(5.96856e-13 0 0)
(5.11591e-13 0 0)
(5.25802e-13 0 0)
(3.05533e-13 0 0)
(3.83693e-13 0 0)
(3.97904e-13 0 0)
(3.76588e-13 0 0)
(2.91322e-13 0 0)
(2.98429e-13 0 0)
(3.90798e-13 0 0)
(5.68435e-13 0 0)
(6.03962e-13 0 0)
(7.38964e-13 0 0)
(7.38965e-13 0 0)
(6.18172e-13 0 0)
(5.82645e-13 0 0)
(5.54224e-13 0 0)
(7.03437e-13 0 0)
(8.95284e-13 0 0)
(9.45022e-13 0 0)
(1.30029e-12 0 0)
(1.50635e-12 0 0)
(1.4424e-12 0 0)
(1.37845e-12 0 0)
(1.12976e-12 0 0)
(1.00897e-12 0 0)
(8.52652e-13 0 0)
(8.59757e-13 0 0)
(1.0445e-12 0 0)
(1.14397e-12 0 0)
(1.01608e-12 0 0)
(1.19371e-12 0 0)
(8.88179e-13 0 0)
(9.45021e-13 0 0)
(8.66863e-13 0 0)
(8.02913e-13 0 0)
(5.32907e-13 0 0)
(4.9738e-13 0 0)
(5.25801e-13 0 0)
(3.76588e-13 0 0)
(3.2685e-13 0 0)
(4.33431e-13 0 0)
(2.20269e-13 0 0)
(1.06581e-13 0 0)
(7.81609e-14 0 0)
(1.42107e-13 0 0)
(2.06058e-13 0 0)
(1.7053e-13 0 0)
(2.4869e-13 0 0)
(1.63424e-13 0 0)
(3.05534e-13 0 0)
(2.20268e-13 0 0)
(1.20792e-13 0 0)
(-1.49214e-13 0 0)
(-3.83693e-13 0 0)
(-3.83693e-13 0 0)
(-5.47117e-13 0 0)
(-6.89227e-13 0 0)
(-1.00186e-12 0 0)
(-9.09495e-13 0 0)
(-1.03029e-12 0 0)
(-1.25056e-12 0 0)
(-1.14397e-12 0 0)
(-1.00897e-12 0 0)
(-6.82121e-13 0 0)
(-5.54223e-13 0 0)
(-3.76588e-13 0 0)
(-3.12638e-13 0 0)
(-1.63426e-13 0 0)
(7.10601e-15 0 0)
(3.19743e-13 0 0)
(2.70007e-13 0 0)
(3.33954e-13 0 0)
(3.55272e-13 0 0)
(5.32906e-13 0 0)
(3.69483e-13 0 0)
(4.76063e-13 0 0)
(4.05011e-13 0 0)
(1.27896e-13 0 0)
(1.35004e-13 0 0)
(3.83693e-13 0 0)
(5.04486e-13 0 0)
(3.19744e-13 0 0)
(3.55272e-13 0 0)
(4.47642e-13 0 0)
(3.83693e-13 0 0)
(-1.42109e-14 0 0)
(-2.55796e-13 0 0)
(-7.10507e-15 0 0)
(1.20792e-13 0 0)
(1.91847e-13 0 0)
(2.70006e-13 0 0)
(3.55272e-13 0 0)
(3.90798e-13 0 0)
(2.70006e-13 0 0)
(3.97904e-13 0 0)
(2.13163e-13 0 0)
(1.27898e-13 0 0)
(1.63425e-13 0 0)
(2.06058e-13 0 0)
(1.13687e-13 0 0)
(-4.97382e-14 0 0)
(-1.77636e-13 0 0)
(-1.06582e-13 0 0)
(-1.42108e-13 0 0)
(-2.84224e-14 0 0)
(-2.41584e-13 0 0)
(-1.35004e-13 0 0)
(-2.84207e-14 0 0)
(3.33954e-13 0 0)
(5.68435e-13 0 0)
(1.06581e-13 0 0)
(-6.39484e-14 0 0)
(-3.05534e-13 0 0)
(-4.83168e-13 0 0)
(-2.20269e-13 0 0)
(-4.1922e-13 0 0)
(7.81595e-14 0 0)
(-1.13687e-13 0 0)
(-1.13687e-13 0 0)
(1.42113e-14 0 0)
(-4.26331e-14 0 0)
(1.98953e-13 0 0)
(3.76587e-13 0 0)
(1.20793e-13 0 0)
(2.41583e-13 0 0)
(3.90799e-13 0 0)
(2.27374e-13 0 0)
(3.55271e-13 0 0)
(4.61853e-13 0 0)
(9.166e-13 0 0)
(1.18661e-12 0 0)
(9.94759e-13 0 0)
(1.08713e-12 0 0)
(9.37915e-13 0 0)
(6.89228e-13 0 0)
(6.75014e-13 0 0)
(7.53177e-13 0 0)
(1.12266e-12 0 0)
(1.12266e-12 0 0)
(1.25766e-12 0 0)
(9.59234e-13 0 0)
(1.19371e-12 0 0)
(8.95285e-13 0 0)
(7.74491e-13 0 0)
(7.17649e-13 0 0)
(6.39488e-13 0 0)
(3.97905e-13 0 0)
(4.3343e-13 0 0)
(2.2027e-13 0 0)
(5.61327e-13 0 0)
(4.12116e-13 0 0)
(4.40536e-13 0 0)
(2.98428e-13 0 0)
(2.91322e-13 0 0)
(5.54223e-13 0 0)
(7.60281e-13 0 0)
(5.25801e-13 0 0)
(2.62901e-13 0 0)
(1.13686e-13 0 0)
(2.13171e-14 0 0)
(2.98427e-13 0 0)
(1.27899e-13 0 0)
(2.77111e-13 0 0)
(2.62901e-13 0 0)
(2.70006e-13 0 0)
(2.27374e-13 0 0)
(2.41585e-13 0 0)
(2.27373e-13 0 0)
(1.91847e-13 0 0)
(2.41584e-13 0 0)
(4.68958e-13 0 0)
(4.47642e-13 0 0)
(2.20268e-13 0 0)
(-9.23709e-14 0 0)
(-2.27373e-13 0 0)
(-2.84217e-13 0 0)
(-3.19744e-13 0 0)
(-4.40536e-13 0 0)
(-4.47642e-13 0 0)
(-4.12114e-13 0 0)
(-4.47643e-13 0 0)
(-3.41059e-13 0 0)
(1.35002e-13 0 0)
(3.76589e-13 0 0)
(5.89749e-13 0 0)
(6.96333e-13 0 0)
(9.23706e-13 0 0)
(9.9476e-13 0 0)
(9.23705e-13 0 0)
(9.23707e-13 0 0)
(1.1795e-12 0 0)
(1.22213e-12 0 0)
(1.35714e-12 0 0)
(1.6982e-12 0 0)
(1.81899e-12 0 0)
(1.98952e-12 0 0)
(1.78346e-12 0 0)
(1.79767e-12 0 0)
(1.93978e-12 0 0)
(2.20979e-12 0 0)
(2.21689e-12 0 0)
(1.79767e-12 0 0)
(1.50635e-12 0 0)
(1.26477e-12 0 0)
(1.10845e-12 0 0)
(8.17123e-13 0 0)
(8.95285e-13 0 0)
(8.10018e-13 0 0)
(6.537e-13 0 0)
(5.75539e-13 0 0)
(6.46594e-13 0 0)
(7.10543e-13 0 0)
(5.32906e-13 0 0)
(3.55273e-13 0 0)
(5.54222e-13 0 0)
(8.73969e-13 0 0)
(9.66337e-13 0 0)
(9.30812e-13 0 0)
(1.13687e-12 0 0)
(8.1002e-13 0 0)
(7.03437e-13 0 0)
(6.32383e-13 0 0)
(5.18695e-13 0 0)
(4.90276e-13 0 0)
(5.25801e-13 0 0)
(4.12116e-13 0 0)
(2.55795e-13 0 0)
(4.97381e-14 0 0)
(2.13163e-13 0 0)
(5.82645e-13 0 0)
(7.74493e-13 0 0)
(9.66337e-13 0 0)
(8.38441e-13 0 0)
(5.7554e-13 0 0)
(6.03961e-13 0 0)
(5.32907e-13 0 0)
(3.90799e-13 0 0)
(3.26849e-13 0 0)
(3.33955e-13 0 0)
(6.39481e-14 0 0)
(-1.0658e-13 0 0)
(3.48165e-13 0 0)
(6.39489e-13 0 0)
(7.17648e-13 0 0)
(4.47642e-13 0 0)
(7.46069e-13 0 0)
(9.87655e-13 0 0)
(1.16529e-12 0 0)
(8.95285e-13 0 0)
(1.03739e-12 0 0)
(7.67386e-13 0 0)
(6.75016e-13 0 0)
(4.54747e-13 0 0)
(5.8975e-13 0 0)
(6.75016e-13 0 0)
(6.39488e-13 0 0)
(5.32908e-13 0 0)
(5.68434e-13 0 0)
(4.54748e-13 0 0)
(4.33431e-13 0 0)
(5.25802e-13 0 0)
(3.69482e-13 0 0)
(6.39491e-14 0 0)
(1.7053e-13 0 0)
(4.54748e-13 0 0)
(4.47642e-13 0 0)
(7.24753e-13 0 0)
(8.2423e-13 0 0)
(7.4607e-13 0 0)
(6.46594e-13 0 0)
(9.73444e-13 0 0)
(9.87654e-13 0 0)
(6.6791e-13 0 0)
(3.2685e-13 0 0)
(4.97376e-14 0 0)
(-1.77635e-13 0 0)
(-1.20792e-13 0 0)
(-7.10559e-15 0 0)
(-1.27898e-13 0 0)
(-7.10449e-15 0 0)
(-1.84742e-13 0 0)
(-3.05532e-13 0 0)
(-1.15832e-18 0 0)
(-2.06057e-13 0 0)
(-2.91323e-13 0 0)
(-6.96332e-13 0 0)
(-8.17124e-13 0 0)
(-4.76064e-13 0 0)
(-5.61329e-13 0 0)
(-1.35004e-13 0 0)
(1.42109e-13 0 0)
(7.81587e-14 0 0)
(1.27899e-13 0 0)
(2.13162e-13 0 0)
(2.70007e-13 0 0)
(3.4106e-13 0 0)
(1.70531e-13 0 0)
(2.27373e-13 0 0)
(9.94761e-14 0 0)
(-1.42114e-14 0 0)
(1.13688e-13 0 0)
(2.20267e-13 0 0)
(-1.56319e-13 0 0)
(-1.77636e-13 0 0)
(-1.42109e-13 0 0)
(-3.2685e-13 0 0)
(-5.68434e-13 0 0)
(-6.6791e-13 0 0)
(-8.45546e-13 0 0)
(-6.82121e-13 0 0)
(-3.83693e-13 0 0)
(-2.41584e-13 0 0)
(-3.90799e-13 0 0)
(-5.54222e-13 0 0)
(-4.40537e-13 0 0)
(-9.16599e-13 0 0)
(-9.9476e-13 0 0)
(-1.00897e-12 0 0)
(-8.88179e-13 0 0)
(-7.17648e-13 0 0)
(-2.91323e-13 0 0)
(3.69483e-13 0 0)
(9.37916e-13 0 0)
(1.48503e-12 0 0)
(2.08899e-12 0 0)
(2.6219e-12 0 0)
(2.86349e-12 0 0)
(3.73035e-12 0 0)
(5.40723e-12 0 0)
(7.83018e-12 0 0)
(1.139e-11 0 0)
(1.65628e-11 0 0)
(2.42295e-11 0 0)
(3.54774e-11 0 0)
(5.23244e-11 0 0)
(7.7172e-11 0 0)
(1.14213e-10 0 0)
(1.69301e-10 0 0)
(2.50523e-10 0 0)
(3.70413e-10 0 0)
(5.46336e-10 0 0)
(8.04363e-10 0 0)
(1.18114e-09 0 0)
(1.72965e-09 0 0)
(2.52598e-09 0 0)
(3.67901e-09 0 0)
(5.34374e-09 0 0)
(7.73921e-09 0 0)
(1.11762e-08 0 0)
(1.60918e-08 0 0)
(2.31018e-08 0 0)
(3.30673e-08 0 0)
(4.71906e-08 0 0)
(6.71457e-08 0 0)
(9.52532e-08 0 0)
(1.34719e-07 0 0)
(1.8996e-07 0 0)
(2.67036e-07 0 0)
(3.74237e-07 0 0)
(5.22863e-07 0 0)
(7.28259e-07 0 0)
(1.01119e-06 0 0)
(1.39967e-06 0 0)
(1.93132e-06 0 0)
(2.65652e-06 0 0)
(3.64246e-06 0 0)
(4.97844e-06 0 0)
(6.78269e-06 0 0)
(9.21113e-06 0 0)
(1.24687e-05 0 0)
(1.68235e-05 0 0)
(2.26252e-05 0 0)
(3.03281e-05 0 0)
(4.05196e-05 0 0)
(5.39568e-05 0 0)
(7.1611e-05 0 0)
(9.47239e-05 0 0)
(0.000124876 0 0)
(0.00016407 0 0)
(0.000214834 0 0)
(0.000280346 0 0)
(0.000364582 0 0)
(0.000472496 0 0)
(0.000610235 0 0)
(0.000785386 0 0)
(0.00100728 0 0)
(0.00128733 0 0)
(0.00163943 0 0)
(0.00208045 0 0)
(0.00263071 0 0)
(0.00331461 0 0)
(0.0041613 0 0)
(0.00520542 0 0)
(0.00648795 0 0)
(0.00805705 0 0)
(0.0099691 0 0)
(0.0122897 0 0)
(0.0150947 0 0)
(0.0184715 0 0)
(0.0225201 0 0)
(0.027354 0 0)
(0.0331019 0 0)
(0.0399081 0 0)
(0.0479341 0 0)
(0.0573587 0 0)
(0.0683793 0 0)
(0.0812121 0 0)
(0.0960921 0 0)
(0.113273 0 0)
(0.133027 0 0)
(0.155644 0 0)
(0.18143 0 0)
(0.210706 0 0)
(0.243805 0 0)
(0.28107 0 0)
(0.322852 0 0)
(0.369507 0 0)
(0.421392 0 0)
(0.478859 0 0)
(0.542256 0 0)
(0.61192 0 0)
(0.688175 0 0)
(0.771324 0 0)
(0.861652 0 0)
(0.959418 0 0)
(1.06485 0 0)
(1.17816 0 0)
(1.2995 0 0)
(1.42902 0 0)
(1.5668 0 0)
(1.71293 0 0)
(1.86741 0 0)
(2.03025 0 0)
(2.2014 0 0)
(2.38078 0 0)
(2.56829 0 0)
(2.76378 0 0)
(2.96708 0 0)
(3.17801 0 0)
(3.39634 0 0)
(3.62185 0 0)
(3.85427 0 0)
(4.09335 0 0)
(4.33879 0 0)
(4.59032 0 0)
(4.84763 0 0)
(5.11042 0 0)
(5.3784 0 0)
(5.65126 0 0)
(5.9287 0 0)
(6.21043 0 0)
(6.49616 0 0)
(6.7856 0 0)
(7.07849 0 0)
(7.37454 0 0)
(7.67351 0 0)
(7.97515 0 0)
(8.27923 0 0)
(8.58552 0 0)
(8.89381 0 0)
(9.20391 0 0)
(9.51562 0 0)
(9.82876 0 0)
(10.1432 0 0)
(10.4587 0 0)
(10.7752 0 0)
(11.0926 0 0)
(11.4107 0 0)
(11.7294 0 0)
(12.0486 0 0)
(12.3683 0 0)
(12.6883 0 0)
(13.0085 0 0)
(13.329 0 0)
(13.6495 0 0)
(13.9702 0 0)
(14.2909 0 0)
(14.6116 0 0)
(14.9322 0 0)
(15.2528 0 0)
(15.5733 0 0)
(15.8936 0 0)
(16.2138 0 0)
(16.5339 0 0)
(16.8537 0 0)
(17.1734 0 0)
(17.4929 0 0)
(17.8122 0 0)
(18.1313 0 0)
(18.4501 0 0)
(18.7688 0 0)
(19.0873 0 0)
(19.4055 0 0)
(19.7236 0 0)
(20.0414 0 0)
(20.3591 0 0)
(20.6766 0 0)
(20.9939 0 0)
(21.311 0 0)
(21.6279 0 0)
(21.9447 0 0)
(22.2613 0 0)
(22.5777 0 0)
(22.894 0 0)
(23.2102 0 0)
(23.5262 0 0)
(23.8421 0 0)
(24.1579 0 0)
(24.4736 0 0)
(24.7891 0 0)
(25.1046 0 0)
(25.42 0 0)
(25.7353 0 0)
(26.0505 0 0)
(26.3656 0 0)
(26.6807 0 0)
(26.9957 0 0)
(27.3107 0 0)
(27.6256 0 0)
(27.9405 0 0)
(28.2553 0 0)
(28.5702 0 0)
(28.8849 0 0)
(29.1997 0 0)
(29.5145 0 0)
(29.8292 0 0)
(30.144 0 0)
(30.4588 0 0)
(30.7735 0 0)
(31.0883 0 0)
(31.4031 0 0)
(31.7179 0 0)
(32.0327 0 0)
(32.3476 0 0)
(32.6625 0 0)
(32.9774 0 0)
(33.2924 0 0)
(33.6074 0 0)
(33.9224 0 0)
(34.2375 0 0)
(34.5527 0 0)
(34.8679 0 0)
(35.1831 0 0)
(35.4984 0 0)
(35.8138 0 0)
(36.1293 0 0)
(36.4448 0 0)
(36.7604 0 0)
(37.076 0 0)
(37.3917 0 0)
(37.7075 0 0)
(38.0234 0 0)
(38.3394 0 0)
(38.6554 0 0)
(38.9716 0 0)
(39.2878 0 0)
(39.6041 0 0)
(39.9205 0 0)
(40.237 0 0)
(40.5536 0 0)
(40.8703 0 0)
(41.1871 0 0)
(41.504 0 0)
(41.821 0 0)
(42.1381 0 0)
(42.4553 0 0)
(42.7727 0 0)
(43.0901 0 0)
(43.4077 0 0)
(43.7254 0 0)
(44.0433 0 0)
(44.3613 0 0)
(44.6794 0 0)
(44.9977 0 0)
(45.3161 0 0)
(45.6346 0 0)
(45.9533 0 0)
(46.2721 0 0)
(46.5912 0 0)
(46.9103 0 0)
(47.2297 0 0)
(47.5492 0 0)
(47.8689 0 0)
(48.1887 0 0)
(48.5088 0 0)
(48.829 0 0)
(49.1494 0 0)
(49.47 0 0)
(49.7908 0 0)
(50.1118 0 0)
(50.433 0 0)
(50.7545 0 0)
(51.0761 0 0)
(51.3979 0 0)
(51.72 0 0)
(52.0423 0 0)
(52.3649 0 0)
(52.6876 0 0)
(53.0106 0 0)
(53.3339 0 0)
(53.6574 0 0)
(53.9811 0 0)
(54.3051 0 0)
(54.6293 0 0)
(54.9539 0 0)
(55.2786 0 0)
(55.6037 0 0)
(55.929 0 0)
(56.2546 0 0)
(56.5804 0 0)
(56.9066 0 0)
(57.233 0 0)
(57.5597 0 0)
(57.8868 0 0)
(58.2141 0 0)
(58.5417 0 0)
(58.8696 0 0)
(59.1978 0 0)
(59.5264 0 0)
(59.8552 0 0)
(60.1844 0 0)
(60.5139 0 0)
(60.8438 0 0)
(61.1739 0 0)
(61.5044 0 0)
(61.8352 0 0)
(62.1664 0 0)
(62.4979 0 0)
(62.8298 0 0)
(63.162 0 0)
(63.4946 0 0)
(63.8276 0 0)
(64.1609 0 0)
(64.4946 0 0)
(64.8287 0 0)
(65.1632 0 0)
(65.498 0 0)
(65.8332 0 0)
(66.1689 0 0)
(66.5049 0 0)
(66.8414 0 0)
(67.1782 0 0)
(67.5155 0 0)
(67.8532 0 0)
(68.1913 0 0)
(68.5299 0 0)
(68.8688 0 0)
(69.2083 0 0)
(69.5481 0 0)
(69.8885 0 0)
(70.2293 0 0)
(70.5705 0 0)
(70.9123 0 0)
(71.2545 0 0)
(71.5971 0 0)
(71.9403 0 0)
(72.284 0 0)
(72.6281 0 0)
(72.9728 0 0)
(73.318 0 0)
(73.6637 0 0)
(74.0099 0 0)
(74.3566 0 0)
(74.7039 0 0)
(75.0517 0 0)
(75.4001 0 0)
(75.749 0 0)
(76.0985 0 0)
(76.4485 0 0)
(76.7991 0 0)
(77.1503 0 0)
(77.5021 0 0)
(77.8545 0 0)
(78.2075 0 0)
(78.561 0 0)
(78.9152 0 0)
(79.2701 0 0)
(79.6255 0 0)
(79.9816 0 0)
(80.3383 0 0)
(80.6957 0 0)
(81.0537 0 0)
(81.4124 0 0)
(81.7718 0 0)
(82.1318 0 0)
(82.4927 0 0)
(82.854 0 0)
(83.2164 0 0)
(83.5789 0 0)
(83.943 0 0)
(84.3066 0 0)
(84.6728 0 0)
(85.0372 0 0)
(85.4059 0 0)
(85.7704 0 0)
(86.1424 0 0)
(86.5064 0 0)
(86.8826 0 0)
(87.245 0 0)
(87.6266 0 0)
(87.9864 0 0)
(88.3744 0 0)
(88.7309 0 0)
(89.1257 0 0)
(89.4791 0 0)
(89.8798 0 0)
(90.2319 0 0)
(90.6363 0 0)
(90.9901 0 0)
(91.3946 0 0)
(91.7543 0 0)
(92.1544 0 0)
(92.5249 0 0)
(92.9154 0 0)
(93.3022 0 0)
(93.6776 0 0)
(94.0863 0 0)
(94.4413 0 0)
(94.8773 0 0)
(95.2072 0 0)
(95.6743 0 0)
(95.9768 0 0)
(96.4749 0 0)
(96.7531 0 0)
(97.2752 0 0)
(97.5402 0 0)
(98.0722 0 0)
(98.3388 0 0)
(98.8725 0 0)
(99.1416 0 0)
(99.6795 0 0)
(99.9494 0 0)
(100.49 0 0)
(100.763 0 0)
(101.307 0 0)
(101.581 0 0)
(102.13 0 0)
(102.405 0 0)
(102.958 0 0)
(103.235 0 0)
(103.791 0 0)
(104.071 0 0)
(104.631 0 0)
(104.913 0 0)
(105.478 0 0)
(105.761 0 0)
(106.33 0 0)
(106.616 0 0)
(107.189 0 0)
(107.477 0 0)
(108.055 0 0)
(108.346 0 0)
(108.929 0 0)
(109.223 0 0)
(109.808 0 0)
(110.111 0 0)
(110.689 0 0)
(111.013 0 0)
(111.573 0 0)
(111.927 0 0)
(112.462 0 0)
(112.849 0 0)
(113.363 0 0)
(113.776 0 0)
(114.278 0 0)
(114.707 0 0)
(115.205 0 0)
(115.647 0 0)
(116.143 0 0)
(116.596 0 0)
(117.09 0 0)
(117.554 0 0)
(118.051 0 0)
(118.522 0 0)
(119.024 0 0)
(119.499 0 0)
(120.008 0 0)
(120.489 0 0)
(121.004 0 0)
(121.493 0 0)
(122.012 0 0)
(122.509 0 0)
(123.033 0 0)
(123.538 0 0)
(124.068 0 0)
(124.582 0 0)
(125.119 0 0)
(125.64 0 0)
(126.185 0 0)
(126.714 0 0)
(127.267 0 0)
(127.805 0 0)
(128.366 0 0)
(128.913 0 0)
(129.482 0 0)
(130.041 0 0)
(130.618 0 0)
(131.187 0 0)
(131.775 0 0)
(132.354 0 0)
(132.954 0 0)
(133.543 0 0)
(134.155 0 0)
(134.756 0 0)
(135.382 0 0)
(135.994 0 0)
(136.634 0 0)
(137.26 0 0)
(137.914 0 0)
(138.556 0 0)
(139.223 0 0)
(139.885 0 0)
(140.565 0 0)
(141.248 0 0)
(141.943 0 0)
(142.649 0 0)
(143.36 0 0)
(144.09 0 0)
(144.821 0 0)
(145.575 0 0)
(146.329 0 0)
(147.111 0 0)
(147.889 0 0)
(148.704 0 0)
(149.509 0 0)
(150.36 0 0)
(151.195 0 0)
(152.086 0 0)
(152.957 0 0)
(153.891 0 0)
(154.807 0 0)
(155.788 0 0)
(156.756 0 0)
(157.791 0 0)
(158.819 0 0)
(159.914 0 0)
(161.009 0 0)
(162.174 0 0)
(163.342 0 0)
(164.586 0 0)
(165.832 0 0)
(167.16 0 0)
(168.485 0 0)
(169.893 0 0)
(171.288 0 0)
(172.757 0 0)
(174.19 0 0)
(175.664 0 0)
(177.065 0 0)
(178.407 0 0)
(179.61 0 0)
(180.737 0 0)
(181.718 0 0)
(182.652 0 0)
(183.463 0 0)
(184.273 0 0)
(184.995 0 0)
(185.754 0 0)
(186.459 0 0)
(187.217 0 0)
(187.953 0 0)
(188.735 0 0)
(189.525 0 0)
(190.334 0 0)
(191.173 0 0)
(192 0 0)
(192.87 0 0)
(193.705 0 0)
(194.584 0 0)
(195.419 0 0)
(196.289 0 0)
(197.122 0 0)
(197.973 0 0)
(198.804 0 0)
(199.634 0 0)
(200.465 0 0)
(201.278 0 0)
(202.106 0 0)
(202.912 0 0)
(203.734 0 0)
(204.542 0 0)
(205.351 0 0)
(206.168 0 0)
(206.961 0 0)
(207.79 0 0)
(208.565 0 0)
(209.401 0 0)
(210.165 0 0)
(210.999 0 0)
(211.758 0 0)
(212.581 0 0)
(213.338 0 0)
(214.149 0 0)
(214.901 0 0)
(215.707 0 0)
(216.444 0 0)
(217.256 0 0)
(217.968 0 0)
(218.791 0 0)
(219.476 0 0)
(220.308 0 0)
(220.977 0 0)
(221.804 0 0)
(222.463 0 0)
(223.286 0 0)
(223.94 0 0)
(224.749 0 0)
(225.4 0 0)
(226.197 0 0)
(226.845 0 0)
(227.631 0 0)
(228.27 0 0)
(229.051 0 0)
(229.675 0 0)
(230.457 0 0)
(231.061 0 0)
(231.845 0 0)
(232.429 0 0)
(233.212 0 0)
(233.781 0 0)
(234.56 0 0)
(235.116 0 0)
(235.881 0 0)
(236.432 0 0)
(237.17 0 0)
(237.735 0 0)
(238.427 0 0)
(239.017 0 0)
(239.642 0 0)
(240.283 0 0)
(240.842 0 0)
(241.521 0 0)
(241.989 0 0)
(242.686 0 0)
(243.142 0 0)
(243.829 0 0)
(244.254 0 0)
(244.886 0 0)
(245.288 0 0)
(245.92 0 0)
(246.298 0 0)
(246.906 0 0)
(247.267 0 0)
(248.158 0 0)
(247.865 0 0)
(246.197 0 0)
(246.063 0 0)
)
;

boundaryField
{
    sideLeft
    {
        type            symmetryPlane;
    }
    sideRight
    {
        type            zeroGradient;
    }
    topbottom
    {
        type            empty;
    }
    frontback
    {
        type            empty;
    }
}


// ************************************************************************* //
