/*--------------------------------*- C++ -*----------------------------------*\
| =========                 |                                                 |
| \\      /  F ield         | OpenFOAM: The Open Source CFD Toolbox           |
|  \\    /   O peration     | Version:  2.4.0                                 |
|   \\  /    A nd           | Web:      www.OpenFOAM.org                      |
|    \\/     M anipulation  |                                                 |
\*---------------------------------------------------------------------------*/
FoamFile
{
    version     2.0;
    format      ascii;
    class       volVectorField;
    location    "0.17";
    object      Ur;
}
// * * * * * * * * * * * * * * * * * * * * * * * * * * * * * * * * * * * * * //

dimensions      [0 1 -1 0 0 0 0];

internalField   nonuniform List<vector> 
1000
(
(6.39488e-14 0 0)
(4.9738e-14 0 0)
(-2.13163e-14 0 0)
(1.02877e-21 0 0)
(1.42109e-14 0 0)
(7.10543e-15 0 0)
(7.10543e-15 0 0)
(2.13163e-14 0 0)
(2.99592e-22 0 0)
(2.10934e-21 0 0)
(1.64216e-21 0 0)
(-2.13163e-14 0 0)
(-7.81597e-14 0 0)
(2.84217e-14 0 0)
(1.42109e-13 0 0)
(-3.55271e-14 0 0)
(-7.81597e-14 0 0)
(7.10543e-15 0 0)
(1.42109e-14 0 0)
(2.13163e-14 0 0)
(-2.13163e-14 0 0)
(-1.42109e-14 0 0)
(-7.10543e-15 0 0)
(-4.9738e-14 0 0)
(5.68434e-14 0 0)
(2.84217e-14 0 0)
(-3.55271e-14 0 0)
(1.42109e-14 0 0)
(-2.84217e-14 0 0)
(2.13163e-14 0 0)
(5.68434e-14 0 0)
(1.42109e-14 0 0)
(2.13163e-14 0 0)
(3.25157e-22 0 0)
(-7.10543e-14 0 0)
(-5.68434e-14 0 0)
(-7.10543e-15 0 0)
(1.42109e-14 0 0)
(4.9738e-14 0 0)
(-2.84217e-14 0 0)
(-2.10934e-21 0 0)
(3.55271e-14 0 0)
(-7.10543e-15 0 0)
(-1.42109e-14 0 0)
(-3.55271e-14 0 0)
(7.10543e-15 0 0)
(-3.99713e-21 0 0)
(-1.08124e-21 0 0)
(-2.13163e-14 0 0)
(1.12385e-21 0 0)
(3.55271e-14 0 0)
(-7.10543e-15 0 0)
(-7.10543e-15 0 0)
(-7.10543e-15 0 0)
(3.55271e-14 0 0)
(4.9738e-14 0 0)
(-4.9738e-14 0 0)
(-2.84217e-14 0 0)
(-1.42109e-14 0 0)
(-7.10543e-15 0 0)
(2.13163e-14 0 0)
(1.42109e-14 0 0)
(-3.55271e-14 0 0)
(-4.26326e-14 0 0)
(1.20792e-13 0 0)
(4.26326e-14 0 0)
(-1.27898e-13 0 0)
(7.10543e-15 0 0)
(9.23706e-14 0 0)
(7.10543e-15 0 0)
(-3.55271e-14 0 0)
(-2.13163e-14 0 0)
(4.26326e-14 0 0)
(-2.84217e-14 0 0)
(-3.55271e-14 0 0)
(7.81597e-14 0 0)
(1.57115e-21 0 0)
(-6.39488e-14 0 0)
(7.10543e-15 0 0)
(4.9738e-14 0 0)
(7.10543e-15 0 0)
(-7.10543e-15 0 0)
(7.10543e-15 0 0)
(-1.42109e-14 0 0)
(-1.36245e-21 0 0)
(-7.10543e-15 0 0)
(-3.55271e-14 0 0)
(4.26326e-14 0 0)
(8.52651e-14 0 0)
(-2.84217e-14 0 0)
(-7.10543e-15 0 0)
(7.10543e-15 0 0)
(7.88677e-23 0 0)
(-2.13163e-14 0 0)
(-5.68434e-14 0 0)
(2.84217e-14 0 0)
(5.68434e-14 0 0)
(7.10543e-15 0 0)
(2.84217e-14 0 0)
(-3.64925e-22 0 0)
(-7.10543e-14 0 0)
(4.9738e-14 0 0)
(7.10543e-15 0 0)
(-8.52651e-14 0 0)
(-7.10543e-15 0 0)
(5.68434e-14 0 0)
(7.10543e-15 0 0)
(-2.13163e-14 0 0)
(2.13163e-14 0 0)
(-1.42109e-14 0 0)
(1.42109e-14 0 0)
(3.55271e-14 0 0)
(-7.10543e-15 0 0)
(-3.55271e-14 0 0)
(-4.07533e-22 0 0)
(3.55271e-14 0 0)
(2.13163e-14 0 0)
(-7.10543e-15 0 0)
(-5.68434e-14 0 0)
(-2.13163e-14 0 0)
(7.10543e-15 0 0)
(2.13163e-14 0 0)
(2.13163e-14 0 0)
(-4.26326e-14 0 0)
(-3.55271e-14 0 0)
(6.39488e-14 0 0)
(3.55271e-14 0 0)
(-2.13163e-14 0 0)
(-4.9738e-14 0 0)
(-5.68434e-14 0 0)
(4.26326e-14 0 0)
(3.55271e-14 0 0)
(3.55271e-14 0 0)
(4.26326e-14 0 0)
(-4.9738e-14 0 0)
(-2.84217e-14 0 0)
(8.52651e-14 0 0)
(-1.42109e-14 0 0)
(1.94492e-22 0 0)
(4.26326e-14 0 0)
(-5.68434e-14 0 0)
(-2.84217e-14 0 0)
(7.10542e-15 0 0)
(-3.55271e-14 0 0)
(-2.84217e-14 0 0)
(4.26326e-14 0 0)
(3.55271e-14 0 0)
(-1.43981e-21 0 0)
(7.10543e-15 0 0)
(3.55271e-14 0 0)
(-3.55271e-14 0 0)
(-5.68434e-14 0 0)
(2.08027e-22 0 0)
(5.68434e-14 0 0)
(4.9738e-14 0 0)
(-1.42109e-14 0 0)
(-2.13163e-14 0 0)
(-2.13163e-14 0 0)
(-7.10543e-15 0 0)
(2.62665e-22 0 0)
(7.10543e-15 0 0)
(-1.42109e-14 0 0)
(2.13163e-14 0 0)
(5.68434e-14 0 0)
(-2.13163e-14 0 0)
(-4.26326e-14 0 0)
(-2.13163e-14 0 0)
(-2.84217e-14 0 0)
(7.10543e-15 0 0)
(2.13163e-14 0 0)
(-7.10543e-15 0 0)
(2.84217e-14 0 0)
(-7.10543e-15 0 0)
(-3.55271e-14 0 0)
(-2.84217e-14 0 0)
(-2.84217e-14 0 0)
(5.68434e-14 0 0)
(7.10543e-15 0 0)
(-6.39488e-14 0 0)
(7.10543e-15 0 0)
(3.55271e-14 0 0)
(7.10543e-15 0 0)
(-2.13163e-14 0 0)
(-2.13163e-14 0 0)
(6.39488e-14 0 0)
(-3.55271e-14 0 0)
(-4.26326e-14 0 0)
(7.10543e-14 0 0)
(3.55271e-14 0 0)
(-7.10543e-15 0 0)
(-8.52651e-14 0 0)
(4.9738e-14 0 0)
(2.13163e-14 0 0)
(-7.10543e-14 0 0)
(-1.1997e-22 0 0)
(2.84217e-14 0 0)
(1.42109e-14 0 0)
(-4.26326e-14 0 0)
(-1.68677e-21 0 0)
(-5.68434e-14 0 0)
(-1.56413e-21 0 0)
(9.23706e-14 0 0)
(1.88778e-21 0 0)
(-7.10543e-15 0 0)
(-2.34578e-21 0 0)
(-2.84217e-14 0 0)
(4.26326e-14 0 0)
(1.42109e-14 0 0)
(-4.26326e-14 0 0)
(1.06637e-21 0 0)
(-7.10543e-15 0 0)
(8.15065e-22 0 0)
(7.10543e-15 0 0)
(1.42109e-14 0 0)
(-2.13163e-14 0 0)
(-4.9738e-14 0 0)
(2.13163e-14 0 0)
(2.13163e-14 0 0)
(-4.26326e-14 0 0)
(7.11471e-22 0 0)
(1.42109e-14 0 0)
(7.10543e-15 0 0)
(-2.13163e-14 0 0)
(-2.13163e-14 0 0)
(1.42109e-14 0 0)
(-1.10831e-21 0 0)
(7.10543e-15 0 0)
(2.13163e-14 0 0)
(1.42109e-14 0 0)
(-1.70465e-21 0 0)
(-1.56831e-21 0 0)
(-4.9738e-14 0 0)
(2.13163e-14 0 0)
(5.68434e-14 0 0)
(-1.42109e-14 0 0)
(2.84217e-14 0 0)
(-2.84217e-14 0 0)
(2.13163e-14 0 0)
(6.11564e-23 0 0)
(-2.13163e-14 0 0)
(7.10543e-15 0 0)
(-2.13163e-14 0 0)
(7.81597e-14 0 0)
(-1.42109e-14 0 0)
(-3.55271e-14 0 0)
(-7.10543e-15 0 0)
(-1.42109e-14 0 0)
(8.21414e-22 0 0)
(-3.55271e-14 0 0)
(1.42109e-14 0 0)
(7.10543e-15 0 0)
(5.68434e-14 0 0)
(-1.42109e-14 0 0)
(-8.52651e-14 0 0)
(-7.10543e-15 0 0)
(-4.26326e-14 0 0)
(-2.84217e-14 0 0)
(3.55271e-14 0 0)
(5.68434e-14 0 0)
(4.9738e-14 0 0)
(1.42109e-14 0 0)
(-5.68434e-14 0 0)
(3.55271e-14 0 0)
(2.84217e-14 0 0)
(-5.68434e-14 0 0)
(2.13163e-14 0 0)
(4.9738e-14 0 0)
(-3.55271e-14 0 0)
(-9.23706e-14 0 0)
(-3.55271e-14 0 0)
(7.10543e-15 0 0)
(-1.42109e-14 0 0)
(3.55271e-14 0 0)
(3.55271e-14 0 0)
(-2.84217e-14 0 0)
(-7.41211e-22 0 0)
(2.13163e-14 0 0)
(-1.90065e-21 0 0)
(3.55271e-14 0 0)
(2.13163e-14 0 0)
(-9.23706e-14 0 0)
(-7.10543e-14 0 0)
(5.68434e-14 0 0)
(4.9738e-14 0 0)
(-1.42109e-14 0 0)
(7.10543e-15 0 0)
(2.13163e-14 0 0)
(-1.42109e-14 0 0)
(-3.55271e-14 0 0)
(-7.10543e-15 0 0)
(7.67444e-22 0 0)
(2.84217e-14 0 0)
(2.13163e-14 0 0)
(-5.68434e-14 0 0)
(-3.55271e-14 0 0)
(7.10543e-15 0 0)
(7.10543e-15 0 0)
(7.10543e-15 0 0)
(3.55271e-14 0 0)
(7.10543e-15 0 0)
(7.10543e-15 0 0)
(-1.42109e-14 0 0)
(-4.26326e-14 0 0)
(6.39488e-14 0 0)
(2.13163e-14 0 0)
(-2.13163e-14 0 0)
(7.10543e-15 0 0)
(-2.13163e-14 0 0)
(-5.68434e-14 0 0)
(-3.55271e-14 0 0)
(7.10543e-15 0 0)
(4.9738e-14 0 0)
(5.68434e-14 0 0)
(-1.51718e-21 0 0)
(-2.84217e-14 0 0)
(-1.42109e-14 0 0)
(2.13163e-14 0 0)
(-7.10543e-15 0 0)
(-4.26326e-14 0 0)
(2.13163e-14 0 0)
(3.55271e-14 0 0)
(5.68434e-14 0 0)
(2.13163e-14 0 0)
(-7.81597e-14 0 0)
(-3.55271e-14 0 0)
(-7.10543e-15 0 0)
(-1.42277e-21 0 0)
(4.26326e-14 0 0)
(6.39488e-14 0 0)
(-1.42109e-14 0 0)
(-4.9738e-14 0 0)
(2.13163e-14 0 0)
(3.55271e-14 0 0)
(2.84217e-14 0 0)
(-7.10543e-14 0 0)
(-7.10543e-14 0 0)
(7.10543e-15 0 0)
(-3.55271e-14 0 0)
(-1.69463e-21 0 0)
(2.84217e-14 0 0)
(1.42109e-14 0 0)
(1.42109e-14 0 0)
(-1.42109e-14 0 0)
(7.10543e-15 0 0)
(7.10543e-15 0 0)
(-1.42109e-14 0 0)
(7.10543e-15 0 0)
(2.67444e-21 0 0)
(2.84217e-14 0 0)
(4.26326e-14 0 0)
(-1.42109e-14 0 0)
(1.42109e-14 0 0)
(7.10543e-15 0 0)
(-4.9738e-14 0 0)
(-7.10543e-15 0 0)
(-1.42109e-14 0 0)
(-1.42109e-14 0 0)
(1.42109e-14 0 0)
(-4.26326e-14 0 0)
(-2.01679e-22 0 0)
(4.9738e-14 0 0)
(1.42109e-14 0 0)
(2.13163e-14 0 0)
(-7.10543e-15 0 0)
(-1.42109e-14 0 0)
(-2.13163e-14 0 0)
(-3.55271e-14 0 0)
(6.39488e-14 0 0)
(4.9738e-14 0 0)
(-4.9738e-14 0 0)
(-7.10543e-15 0 0)
(2.13163e-14 0 0)
(-3.55271e-14 0 0)
(4.26326e-14 0 0)
(2.84217e-14 0 0)
(-4.9738e-14 0 0)
(-4.26326e-14 0 0)
(-4.26326e-14 0 0)
(2.84217e-14 0 0)
(8.52651e-14 0 0)
(4.26326e-14 0 0)
(-1.42108e-14 0 0)
(5.68434e-14 0 0)
(7.10543e-14 0 0)
(-2.13162e-14 0 0)
(7.10543e-14 0 0)
(1.42109e-13 0 0)
(1.27898e-13 0 0)
(2.27374e-13 0 0)
(2.84217e-13 0 0)
(4.0501e-13 0 0)
(6.25278e-13 0 0)
(1.00187e-12 0 0)
(1.4424e-12 0 0)
(2.0961e-12 0 0)
(2.97718e-12 0 0)
(4.27037e-12 0 0)
(6.29542e-12 0 0)
(8.95285e-12 0 0)
(1.27472e-11 0 0)
(1.81757e-11 0 0)
(2.57146e-11 0 0)
(3.64438e-11 0 0)
(5.15144e-11 0 0)
(7.24328e-11 0 0)
(1.01594e-10 0 0)
(1.42052e-10 0 0)
(1.97872e-10 0 0)
(2.74718e-10 0 0)
(3.80077e-10 0 0)
(5.24417e-10 0 0)
(7.2128e-10 0 0)
(9.88174e-10 0 0)
(1.34948e-09 0 0)
(1.83676e-09 0 0)
(2.49131e-09 0 0)
(3.36768e-09 0 0)
(4.53644e-09 0 0)
(6.08949e-09 0 0)
(8.14581e-09 0 0)
(1.08579e-08 0 0)
(1.44213e-08 0 0)
(1.90854e-08 0 0)
(2.51669e-08 0 0)
(3.30653e-08 0 0)
(4.32831e-08 0 0)
(5.64488e-08 0 0)
(7.33448e-08 0 0)
(9.49402e-08 0 0)
(1.22429e-07 0 0)
(1.57273e-07 0 0)
(2.01256e-07 0 0)
(2.56539e-07 0 0)
(3.25727e-07 0 0)
(4.1194e-07 0 0)
(5.18894e-07 0 0)
(6.50987e-07 0 0)
(8.13388e-07 0 0)
(1.01214e-06 0 0)
(1.25423e-06 0 0)
(1.54774e-06 0 0)
(1.90187e-06 0 0)
(2.32706e-06 0 0)
(2.83504e-06 0 0)
(3.43887e-06 0 0)
(4.15296e-06 0 0)
(4.99303e-06 0 0)
(5.97604e-06 0 0)
(7.12009e-06 0 0)
(8.44418e-06 0 0)
(9.96799e-06 0 0)
(1.17115e-05 0 0)
(1.36947e-05 0 0)
(1.59368e-05 0 0)
(1.8456e-05 0 0)
(2.12686e-05 0 0)
(2.43883e-05 0 0)
(2.78254e-05 0 0)
(3.15863e-05 0 0)
(3.56723e-05 0 0)
(4.00791e-05 0 0)
(4.47958e-05 0 0)
(4.98048e-05 0 0)
(5.50808e-05 0 0)
(6.05909e-05 0 0)
(6.62945e-05 0 0)
(7.21432e-05 0 0)
(7.80817e-05 0 0)
(8.4048e-05 0 0)
(8.99747e-05 0 0)
(9.57901e-05 0 0)
(0.00010142 0 0)
(0.000106787 0 0)
(0.000111818 0 0)
(0.000116439 0 0)
(0.00012058 0 0)
(0.000124179 0 0)
(0.000127179 0 0)
(0.000129533 0 0)
(0.000131203 0 0)
(0.000132162 0 0)
(0.000132394 0 0)
(0.000131894 0 0)
(0.000130668 0 0)
(0.000128734 0 0)
(0.000126119 0 0)
(0.000122858 0 0)
(0.000118997 0 0)
(0.000114585 0 0)
(0.000109678 0 0)
(0.000104337 0 0)
(9.86249e-05 0 0)
(9.26049e-05 0 0)
(8.6341e-05 0 0)
(7.98961e-05 0 0)
(7.33311e-05 0 0)
(6.67037e-05 0 0)
(6.00683e-05 0 0)
(5.3475e-05 0 0)
(4.69693e-05 0 0)
(4.05922e-05 0 0)
(3.43795e-05 0 0)
(2.83623e-05 0 0)
(2.25668e-05 0 0)
(1.70145e-05 0 0)
(1.17224e-05 0 0)
(6.70344e-06 0 0)
(1.96658e-06 0 0)
(-2.48273e-06 0 0)
(-6.64223e-06 0 0)
(-1.05125e-05 0 0)
(-1.40966e-05 0 0)
(-1.73999e-05 0 0)
(-2.04295e-05 0 0)
(-2.31939e-05 0 0)
(-2.57032e-05 0 0)
(-2.79682e-05 0 0)
(-3.00007e-05 0 0)
(-3.18127e-05 0 0)
(-3.34169e-05 0 0)
(-3.48261e-05 0 0)
(-3.6053e-05 0 0)
(-3.71103e-05 0 0)
(-3.80105e-05 0 0)
(-3.87659e-05 0 0)
(-3.93881e-05 0 0)
(-3.98886e-05 0 0)
(-4.02781e-05 0 0)
(-4.05671e-05 0 0)
(-4.07653e-05 0 0)
(-4.08818e-05 0 0)
(-4.09253e-05 0 0)
(-4.09038e-05 0 0)
(-4.08247e-05 0 0)
(-4.06949e-05 0 0)
(-4.05207e-05 0 0)
(-4.03079e-05 0 0)
(-4.00617e-05 0 0)
(-3.97869e-05 0 0)
(-3.94879e-05 0 0)
(-3.91685e-05 0 0)
(-3.88322e-05 0 0)
(-3.84821e-05 0 0)
(-3.8121e-05 0 0)
(-3.77513e-05 0 0)
(-3.73752e-05 0 0)
(-3.69945e-05 0 0)
(-3.66108e-05 0 0)
(-3.62257e-05 0 0)
(-3.58403e-05 0 0)
(-3.54557e-05 0 0)
(-3.50727e-05 0 0)
(-3.46922e-05 0 0)
(-3.43149e-05 0 0)
(-3.39411e-05 0 0)
(-3.35714e-05 0 0)
(-3.32061e-05 0 0)
(-3.28456e-05 0 0)
(-3.249e-05 0 0)
(-3.21395e-05 0 0)
(-3.17944e-05 0 0)
(-3.14545e-05 0 0)
(-3.11202e-05 0 0)
(-3.07912e-05 0 0)
(-3.04678e-05 0 0)
(-3.01498e-05 0 0)
(-2.98373e-05 0 0)
(-2.95301e-05 0 0)
(-2.92284e-05 0 0)
(-2.89319e-05 0 0)
(-2.86406e-05 0 0)
(-2.83545e-05 0 0)
(-2.80735e-05 0 0)
(-2.77974e-05 0 0)
(-2.75262e-05 0 0)
(-2.72599e-05 0 0)
(-2.69982e-05 0 0)
(-2.67411e-05 0 0)
(-2.64886e-05 0 0)
(-2.62404e-05 0 0)
(-2.59965e-05 0 0)
(-2.57569e-05 0 0)
(-2.55213e-05 0 0)
(-2.52897e-05 0 0)
(-2.50619e-05 0 0)
(-2.4838e-05 0 0)
(-2.46176e-05 0 0)
(-2.44008e-05 0 0)
(-2.41874e-05 0 0)
(-2.39773e-05 0 0)
(-2.37705e-05 0 0)
(-2.35666e-05 0 0)
(-2.33657e-05 0 0)
(-2.31677e-05 0 0)
(-2.29724e-05 0 0)
(-2.27797e-05 0 0)
(-2.25894e-05 0 0)
(-2.24016e-05 0 0)
(-2.2216e-05 0 0)
(-2.20326e-05 0 0)
(-2.18512e-05 0 0)
(-2.16718e-05 0 0)
(-2.14943e-05 0 0)
(-2.13185e-05 0 0)
(-2.11444e-05 0 0)
(-2.09719e-05 0 0)
(-2.08009e-05 0 0)
(-2.06314e-05 0 0)
(-2.04633e-05 0 0)
(-2.02965e-05 0 0)
(-2.0131e-05 0 0)
(-1.99668e-05 0 0)
(-1.98038e-05 0 0)
(-1.9642e-05 0 0)
(-1.94813e-05 0 0)
(-1.93217e-05 0 0)
(-1.91633e-05 0 0)
(-1.9006e-05 0 0)
(-1.88498e-05 0 0)
(-1.86947e-05 0 0)
(-1.85407e-05 0 0)
(-1.83879e-05 0 0)
(-1.82362e-05 0 0)
(-1.80856e-05 0 0)
(-1.79362e-05 0 0)
(-1.7788e-05 0 0)
(-1.76409e-05 0 0)
(-1.74951e-05 0 0)
(-1.73505e-05 0 0)
(-1.72071e-05 0 0)
(-1.7065e-05 0 0)
(-1.69242e-05 0 0)
(-1.67847e-05 0 0)
(-1.66465e-05 0 0)
(-1.65096e-05 0 0)
(-1.6374e-05 0 0)
(-1.62398e-05 0 0)
(-1.6107e-05 0 0)
(-1.59755e-05 0 0)
(-1.58453e-05 0 0)
(-1.57166e-05 0 0)
(-1.55892e-05 0 0)
(-1.54632e-05 0 0)
(-1.53385e-05 0 0)
(-1.52152e-05 0 0)
(-1.50933e-05 0 0)
(-1.49727e-05 0 0)
(-1.48535e-05 0 0)
(-1.47355e-05 0 0)
(-1.46189e-05 0 0)
(-1.45035e-05 0 0)
(-1.43895e-05 0 0)
(-1.42766e-05 0 0)
(-1.4165e-05 0 0)
(-1.40546e-05 0 0)
(-1.39454e-05 0 0)
(-1.38373e-05 0 0)
(-1.37303e-05 0 0)
(-1.36244e-05 0 0)
(-1.35196e-05 0 0)
(-1.34158e-05 0 0)
(-1.3313e-05 0 0)
(-1.32112e-05 0 0)
(-1.31103e-05 0 0)
(-1.30104e-05 0 0)
(-1.29113e-05 0 0)
(-1.28131e-05 0 0)
(-1.27157e-05 0 0)
(-1.26192e-05 0 0)
(-1.25234e-05 0 0)
(-1.24284e-05 0 0)
(-1.23342e-05 0 0)
(-1.22406e-05 0 0)
(-1.21478e-05 0 0)
(-1.20557e-05 0 0)
(-1.19642e-05 0 0)
(-1.18735e-05 0 0)
(-1.17834e-05 0 0)
(-1.16939e-05 0 0)
(-1.16051e-05 0 0)
(-1.1517e-05 0 0)
(-1.14295e-05 0 0)
(-1.13426e-05 0 0)
(-1.12564e-05 0 0)
(-1.11708e-05 0 0)
(-1.10859e-05 0 0)
(-1.10015e-05 0 0)
(-1.09178e-05 0 0)
(-1.08347e-05 0 0)
(-1.07523e-05 0 0)
(-1.06704e-05 0 0)
(-1.05892e-05 0 0)
(-1.05086e-05 0 0)
(-1.04286e-05 0 0)
(-1.03492e-05 0 0)
(-1.02705e-05 0 0)
(-1.01923e-05 0 0)
(-1.01148e-05 0 0)
(-1.00379e-05 0 0)
(-9.96157e-06 0 0)
(-9.88588e-06 0 0)
(-9.8108e-06 0 0)
(-9.73634e-06 0 0)
(-9.6625e-06 0 0)
(-9.58927e-06 0 0)
(-9.51664e-06 0 0)
(-9.44461e-06 0 0)
(-9.37316e-06 0 0)
(-9.30229e-06 0 0)
(-9.23197e-06 0 0)
(-9.16219e-06 0 0)
(-9.09294e-06 0 0)
(-9.0242e-06 0 0)
(-8.95596e-06 0 0)
(-8.88824e-06 0 0)
(-8.82103e-06 0 0)
(-8.75437e-06 0 0)
(-8.68828e-06 0 0)
(-8.62281e-06 0 0)
(-8.55798e-06 0 0)
(-8.49381e-06 0 0)
(-8.43031e-06 0 0)
(-8.36742e-06 0 0)
(-8.30512e-06 0 0)
(-8.24324e-06 0 0)
(-8.18182e-06 0 0)
(-8.12042e-06 0 0)
(-8.05941e-06 0 0)
(-7.99785e-06 0 0)
(-7.93699e-06 0 0)
(-7.8747e-06 0 0)
(-7.81446e-06 0 0)
(-7.75102e-06 0 0)
(-7.69309e-06 0 0)
(-7.62792e-06 0 0)
(-7.57555e-06 0 0)
(-7.5068e-06 0 0)
(-7.46488e-06 0 0)
(-7.388e-06 0 0)
(-7.36265e-06 0 0)
(-7.26978e-06 0 0)
(-7.26718e-06 0 0)
(-7.14994e-06 0 0)
(-7.17251e-06 0 0)
(-7.0305e-06 0 0)
(-7.06832e-06 0 0)
(-6.92219e-06 0 0)
(-6.94051e-06 0 0)
(-6.8419e-06 0 0)
(-6.77777e-06 0 0)
(-6.80088e-06 0 0)
(-6.58995e-06 0 0)
(-6.78798e-06 0 0)
(-6.42677e-06 0 0)
(-6.76404e-06 0 0)
(-6.37457e-06 0 0)
(-6.33244e-06 0 0)
(-6.34162e-06 0 0)
(-5.74711e-06 0 0)
(-6.60293e-06 0 0)
(-9.15067e-06 0 0)
(-4.03372e-06 0 0)
(-8.69975e-06 0 0)
(-3.66539e-06 0 0)
(-9.05804e-06 0 0)
(-3.0767e-06 0 0)
(-7.99734e-06 0 0)
(-3.57673e-06 0 0)
(-7.92526e-06 0 0)
(-3.09417e-06 0 0)
(1.31042e-07 0 0)
(-1.08367e-05 0 0)
(-8.61757e-08 0 0)
(-1.28207e-05 0 0)
(-4.78635e-06 0 0)
(-8.97753e-06 0 0)
(-3.30263e-06 0 0)
(-5.11448e-06 0 0)
(-7.67924e-05 0 0)
(7.11396e-05 0 0)
(-1.898e-05 0 0)
(-1.65485e-08 0 0)
(-1.45635e-06 0 0)
(-5.4695e-06 0 0)
(-6.38126e-06 0 0)
(-5.35334e-06 0 0)
(1.39805e-06 0 0)
(-1.03268e-05 0 0)
(-8.72287e-06 0 0)
(-1.60999e-06 0 0)
(-3.68924e-06 0 0)
(-5.94237e-06 0 0)
(-5.96945e-06 0 0)
(-3.51356e-06 0 0)
(-3.691e-06 0 0)
(-6.22418e-06 0 0)
(-5.443e-06 0 0)
(-3.97835e-06 0 0)
(-5.59174e-06 0 0)
(-3.72628e-06 0 0)
(-4.51655e-06 0 0)
(-3.49758e-06 0 0)
(-3.01948e-06 0 0)
(-5.37515e-06 0 0)
(-2.43653e-06 0 0)
(-8.13169e-06 0 0)
(1.07595e-07 0 0)
(-6.89118e-06 0 0)
(-1.92061e-06 0 0)
(-5.2309e-06 0 0)
(-2.56839e-07 0 0)
(-7.01352e-06 0 0)
(-1.23021e-05 0 0)
(2.70007e-06 0 0)
(-9.33447e-07 0 0)
(-6.8393e-06 0 0)
(-6.91637e-06 0 0)
(-2.47855e-06 0 0)
(-5.27995e-07 0 0)
(-6.22469e-06 0 0)
(-4.15356e-06 0 0)
(-3.02269e-06 0 0)
(-5.81163e-06 0 0)
(-1.80868e-06 0 0)
(-7.94269e-06 0 0)
(-3.59409e-07 0 0)
(-4.95575e-06 0 0)
(-2.02919e-06 0 0)
(-1.05213e-06 0 0)
(-4.71196e-06 0 0)
(-1.29323e-06 0 0)
(-5.00914e-06 0 0)
(-3.83118e-06 0 0)
(-3.45962e-06 0 0)
(-4.49832e-06 0 0)
(-2.52251e-06 0 0)
(-3.72232e-06 0 0)
(-2.58936e-06 0 0)
(-3.74717e-06 0 0)
(-2.60351e-06 0 0)
(-3.28822e-06 0 0)
(-2.92469e-06 0 0)
(-1.95255e-06 0 0)
(-3.65305e-06 0 0)
(-2.20077e-06 0 0)
(-3.54032e-06 0 0)
(-3.64841e-06 0 0)
(-2.57953e-06 0 0)
(-3.97043e-06 0 0)
(-1.89778e-06 0 0)
(-3.78647e-06 0 0)
(-1.60497e-06 0 0)
(-3.62171e-06 0 0)
(-1.66786e-06 0 0)
(-2.58333e-06 0 0)
(-2.37654e-06 0 0)
(-1.56617e-06 0 0)
(-3.25308e-06 0 0)
(-6.10323e-07 0 0)
(-4.08455e-06 0 0)
(7.92213e-07 0 0)
(-4.812e-06 0 0)
(4.20481e-07 0 0)
(-4.42058e-06 0 0)
(-1.89035e-06 0 0)
(-2.70397e-06 0 0)
(-3.78346e-06 0 0)
(-7.58547e-07 0 0)
(-4.02352e-06 0 0)
(1.77224e-07 0 0)
(-1.78566e-06 0 0)
(-7.06842e-07 0 0)
(8.70841e-07 0 0)
(-2.47306e-06 0 0)
(1.15454e-06 0 0)
(-3.00962e-06 0 0)
(-8.87326e-07 0 0)
(-9.18406e-07 0 0)
(-3.76436e-06 0 0)
(2.9467e-06 0 0)
(-4.76926e-06 0 0)
(5.57697e-06 0 0)
(-3.3033e-06 0 0)
(5.1398e-06 0 0)
(4.97607e-07 0 0)
(3.04448e-06 0 0)
(5.60469e-06 0 0)
(2.24545e-06 0 0)
(9.40633e-06 0 0)
(3.51015e-06 0 0)
(9.43265e-06 0 0)
(5.92778e-06 0 0)
(6.44761e-06 0 0)
(9.82786e-06 0 0)
(5.48259e-06 0 0)
(1.34409e-05 0 0)
(-6.33505e-07 0 0)
(-2.78503e-06 0 0)
(-1.75727e-05 0 0)
(-2.5354e-05 0 0)
(-1.88646e-06 0 0)
(-2.47858e-05 0 0)
(-2.48794e-05 0 0)
(-1.7802e-05 0 0)
(-2.53473e-05 0 0)
(-1.89141e-05 0 0)
(-2.51778e-05 0 0)
(-1.31782e-05 0 0)
(-1.5748e-05 0 0)
(-8.11697e-06 0 0)
(-5.77074e-06 0 0)
(-4.98439e-06 0 0)
(8.21278e-06 0 0)
(1.78554e-06 0 0)
(2.00736e-05 0 0)
(5.51028e-06 0 0)
(2.08473e-05 0 0)
(7.47182e-06 0 0)
(1.57653e-05 0 0)
(1.18258e-05 0 0)
(8.00121e-06 0 0)
(1.49192e-05 0 0)
(-4.11597e-07 0 0)
(1.59046e-05 0 0)
(-4.51191e-06 0 0)
(1.55488e-05 0 0)
(-2.81299e-06 0 0)
(1.25277e-05 0 0)
(4.13111e-06 0 0)
(7.1826e-06 0 0)
(1.48766e-05 0 0)
(1.80658e-06 0 0)
(2.45874e-05 0 0)
(1.00518e-06 0 0)
(2.76704e-05 0 0)
(9.11729e-06 0 0)
(2.18729e-05 0 0)
(2.3882e-05 0 0)
(1.08425e-05 0 0)
(3.56426e-05 0 0)
(5.45084e-06 0 0)
(3.8696e-05 0 0)
(1.60736e-05 0 0)
(3.07408e-05 0 0)
(3.28397e-05 0 0)
(1.58902e-05 0 0)
(4.73424e-05 0 0)
(1.37667e-05 0 0)
(5.37066e-05 0 0)
(2.33867e-05 0 0)
(5.00533e-05 0 0)
(-3.32544e-06 0 0)
(-6.4144e-06 0 0)
(0.000257118 0 0)
(5.07825e-05 0 0)
(-8.44603e-05 0 0)
(2.9689e-05 0 0)
(5.52475e-05 0 0)
(0.000124433 0 0)
(0.000101507 0 0)
(3.66427e-05 0 0)
(9.97224e-05 0 0)
(7.36574e-05 0 0)
(0.000137604 0 0)
(6.95682e-05 0 0)
(0.000130249 0 0)
(9.30636e-05 0 0)
(0.00011298 0 0)
(0.000147311 0 0)
(0.000113704 0 0)
(0.000189802 0 0)
(0.000111485 0 0)
(0.000225635 0 0)
(0.000113776 0 0)
(0.000328198 0 0)
(6.16379e-05 0 0)
(0.000400403 0 0)
(5.83672e-05 0 0)
(0.000488253 0 0)
(0.000199058 0 0)
(0.000510114 0 0)
(0.000293971 0 0)
(0.000259224 0 0)
(0.000940647 0 0)
(0.000515266 0 0)
(0.000348666 0 0)
(0.000305099 0 0)
(0.0011216 0 0)
(0.00057419 0 0)
(0.000741596 0 0)
(0.000967627 0 0)
(0.000434931 0 0)
(0.000699609 0 0)
(0.000453342 0 0)
(0.000112544 0 0)
(0.000639553 0 0)
(0.00845286 0 0)
(0.0072045 0 0)
(-0.00119807 0 0)
(-0.00100044 0 0)
)
;

boundaryField
{
    sideLeft
    {
        type            symmetryPlane;
    }
    sideRight
    {
        type            calculated;
        value           uniform (-0.861683 0 0);
    }
    topbottom
    {
        type            empty;
    }
    frontback
    {
        type            empty;
    }
}


// ************************************************************************* //
