/*--------------------------------*- C++ -*----------------------------------*\
| =========                 |                                                 |
| \\      /  F ield         | OpenFOAM: The Open Source CFD Toolbox           |
|  \\    /   O peration     | Version:  2.4.0                                 |
|   \\  /    A nd           | Web:      www.OpenFOAM.org                      |
|    \\/     M anipulation  |                                                 |
\*---------------------------------------------------------------------------*/
FoamFile
{
    version     2.0;
    format      ascii;
    class       volScalarField;
    location    "0.1";
    object      p;
}
// * * * * * * * * * * * * * * * * * * * * * * * * * * * * * * * * * * * * * //

dimensions      [1 -1 -2 0 0 0 0];

internalField   nonuniform List<scalar> 
1000
(
5e+06
5e+06
5e+06
5e+06
5e+06
5e+06
5e+06
5e+06
5e+06
5e+06
5e+06
5e+06
5e+06
5e+06
5e+06
5e+06
5e+06
5e+06
5e+06
5e+06
5e+06
5e+06
5e+06
5e+06
5e+06
5e+06
5e+06
5e+06
5e+06
5e+06
5e+06
5e+06
5e+06
5e+06
5e+06
5e+06
5e+06
5e+06
5e+06
5e+06
5e+06
5e+06
5e+06
5e+06
5e+06
5e+06
5e+06
5e+06
5e+06
5e+06
5e+06
5e+06
5e+06
5e+06
5e+06
5e+06
5e+06
5e+06
5e+06
5e+06
5e+06
5e+06
5e+06
5e+06
5e+06
5e+06
5e+06
5e+06
5e+06
5e+06
5e+06
5e+06
5e+06
5e+06
5e+06
5e+06
5e+06
5e+06
5e+06
5e+06
5e+06
5e+06
5e+06
5e+06
5e+06
5e+06
5e+06
5e+06
5e+06
5e+06
5e+06
5e+06
5e+06
5e+06
5e+06
5e+06
5e+06
5e+06
5e+06
5e+06
5e+06
5e+06
5e+06
5e+06
5e+06
5e+06
5e+06
5e+06
5e+06
5e+06
5e+06
5e+06
5e+06
5e+06
5e+06
5e+06
5e+06
5e+06
5e+06
5e+06
5e+06
5e+06
5e+06
5e+06
5e+06
5e+06
5e+06
5e+06
5e+06
5e+06
5e+06
5e+06
5e+06
5e+06
5e+06
5e+06
5e+06
5e+06
5e+06
5e+06
5e+06
5e+06
5e+06
5e+06
5e+06
5e+06
5e+06
5e+06
5e+06
5e+06
5e+06
5e+06
5e+06
5e+06
5e+06
5e+06
5e+06
5e+06
5e+06
5e+06
5e+06
5e+06
5e+06
5e+06
5e+06
5e+06
5e+06
5e+06
5e+06
5e+06
5e+06
5e+06
5e+06
5e+06
5e+06
5e+06
5e+06
5e+06
5e+06
5e+06
5e+06
5e+06
5e+06
5e+06
5e+06
5e+06
5e+06
5e+06
5e+06
5e+06
5e+06
5e+06
5e+06
5e+06
5e+06
5e+06
5e+06
5e+06
5e+06
5e+06
5e+06
5e+06
5e+06
5e+06
5e+06
5e+06
5e+06
5e+06
5e+06
5e+06
5e+06
5e+06
5e+06
5e+06
5e+06
5e+06
5e+06
5e+06
5e+06
5e+06
5e+06
5e+06
5e+06
5e+06
5e+06
5e+06
5e+06
5e+06
5e+06
5e+06
5e+06
5e+06
5e+06
5e+06
5e+06
5e+06
5e+06
5e+06
5e+06
5e+06
5e+06
5e+06
5e+06
5e+06
5e+06
5e+06
5e+06
5e+06
5e+06
5e+06
5e+06
5e+06
5e+06
5e+06
5e+06
5e+06
5e+06
5e+06
5e+06
5e+06
5e+06
5e+06
5e+06
5e+06
5e+06
5e+06
5e+06
5e+06
5e+06
5e+06
5e+06
5e+06
5e+06
5e+06
5e+06
5e+06
5e+06
5e+06
5e+06
5e+06
5e+06
5e+06
5e+06
5e+06
5e+06
5e+06
5e+06
5e+06
5e+06
5e+06
5e+06
5e+06
5e+06
5e+06
5e+06
5e+06
5e+06
5e+06
5e+06
5e+06
5e+06
5e+06
5e+06
5e+06
5e+06
5e+06
5e+06
5e+06
5e+06
5e+06
5e+06
5e+06
5e+06
5e+06
5e+06
5e+06
5e+06
5e+06
5e+06
5e+06
5e+06
5e+06
5e+06
5e+06
5e+06
5e+06
5e+06
5e+06
5e+06
5e+06
5e+06
5e+06
5e+06
5e+06
5e+06
5e+06
5e+06
5e+06
5e+06
5e+06
5e+06
5e+06
5e+06
5e+06
5e+06
5e+06
5e+06
5e+06
5e+06
5e+06
5e+06
5e+06
5e+06
5e+06
5e+06
5e+06
5e+06
5e+06
5e+06
5e+06
5e+06
5e+06
5e+06
5e+06
5e+06
5e+06
5e+06
5e+06
5e+06
5e+06
5e+06
5e+06
5e+06
5e+06
5e+06
5e+06
5e+06
5e+06
5e+06
5e+06
5e+06
5e+06
5e+06
5e+06
5e+06
5e+06
5e+06
5e+06
5e+06
5e+06
5e+06
5e+06
5e+06
5e+06
5e+06
5e+06
5e+06
5e+06
5e+06
5e+06
5e+06
5e+06
5e+06
5e+06
5e+06
5e+06
5e+06
5e+06
5e+06
5e+06
5e+06
5e+06
5e+06
5e+06
5e+06
5e+06
5e+06
5e+06
5e+06
5e+06
5e+06
5e+06
5e+06
5e+06
5e+06
5e+06
5e+06
5e+06
5e+06
5e+06
5e+06
5e+06
5e+06
5e+06
5e+06
5e+06
5e+06
5e+06
5e+06
5e+06
5e+06
5e+06
5e+06
5e+06
5e+06
5e+06
5e+06
5e+06
5e+06
5e+06
5e+06
5e+06
5e+06
5e+06
5e+06
5e+06
5e+06
5e+06
5e+06
5e+06
5e+06
5e+06
5e+06
5e+06
5e+06
5e+06
5e+06
5e+06
5e+06
5e+06
5e+06
5e+06
5e+06
5e+06
5e+06
5e+06
5e+06
5e+06
5e+06
5e+06
5e+06
5e+06
5e+06
5e+06
5e+06
5e+06
5e+06
5e+06
5e+06
5e+06
5e+06
5e+06
5e+06
5e+06
5e+06
5e+06
5e+06
5e+06
5e+06
5e+06
5e+06
5e+06
5e+06
5e+06
5e+06
5e+06
5e+06
5e+06
5e+06
5e+06
5e+06
5e+06
5e+06
5e+06
5e+06
5e+06
5e+06
5e+06
5e+06
5e+06
5e+06
5e+06
5e+06
5e+06
5e+06
5e+06
5e+06
5e+06
5e+06
5e+06
5e+06
5e+06
5e+06
5e+06
5e+06
5e+06
5e+06
5e+06
5e+06
5e+06
5e+06
5e+06
5e+06
5e+06
5e+06
5e+06
5e+06
5e+06
5e+06
5e+06
5e+06
5e+06
5e+06
5e+06
5e+06
5e+06
5e+06
5e+06
5e+06
5e+06
5e+06
5e+06
5e+06
5e+06
5e+06
5e+06
5e+06
5e+06
5e+06
5e+06
5e+06
5e+06
5e+06
5e+06
5e+06
5e+06
5e+06
5e+06
5e+06
5e+06
5e+06
5e+06
5e+06
5e+06
5e+06
5e+06
5e+06
5e+06
5e+06
5e+06
5e+06
5e+06
5e+06
5e+06
5e+06
5e+06
5e+06
5e+06
5e+06
5e+06
5e+06
5e+06
5e+06
5e+06
5e+06
5e+06
5e+06
5e+06
5e+06
5e+06
5e+06
5e+06
5e+06
5e+06
5e+06
5e+06
5e+06
5e+06
5e+06
5e+06
5e+06
5e+06
5e+06
5e+06
5e+06
5e+06
5e+06
5e+06
5e+06
5e+06
5e+06
5e+06
5e+06
5e+06
5e+06
5e+06
5e+06
5e+06
5e+06
5e+06
5e+06
5e+06
5e+06
5e+06
5e+06
5e+06
5e+06
5e+06
5e+06
5e+06
5e+06
5e+06
5e+06
5e+06
5e+06
5e+06
5e+06
4.99999e+06
4.99999e+06
4.99999e+06
4.99998e+06
4.99998e+06
4.99997e+06
4.99996e+06
4.99994e+06
4.99992e+06
4.9999e+06
4.99986e+06
4.99982e+06
4.99977e+06
4.9997e+06
4.99961e+06
4.99949e+06
4.99935e+06
4.99918e+06
4.99896e+06
4.9987e+06
4.99838e+06
4.99799e+06
4.99751e+06
4.99695e+06
4.99628e+06
4.99549e+06
4.99456e+06
4.99348e+06
4.99223e+06
4.9908e+06
4.98916e+06
4.98729e+06
4.98519e+06
4.98283e+06
4.9802e+06
4.97729e+06
4.97408e+06
4.97057e+06
4.96675e+06
4.96261e+06
4.95816e+06
4.95338e+06
4.94828e+06
4.94287e+06
4.93715e+06
4.93114e+06
4.92484e+06
4.91826e+06
4.91142e+06
4.90433e+06
4.89701e+06
4.88947e+06
4.88173e+06
4.87382e+06
4.86573e+06
4.85749e+06
4.84912e+06
4.84063e+06
4.83203e+06
4.82334e+06
4.81457e+06
4.80574e+06
4.79684e+06
4.7879e+06
4.77892e+06
4.76992e+06
4.76088e+06
4.75184e+06
4.74278e+06
4.73371e+06
4.72464e+06
4.71557e+06
4.70651e+06
4.69745e+06
4.6884e+06
4.67936e+06
4.67033e+06
4.66131e+06
4.65231e+06
4.64331e+06
4.63434e+06
4.62537e+06
4.61642e+06
4.60748e+06
4.59856e+06
4.58965e+06
4.58075e+06
4.57187e+06
4.563e+06
4.55414e+06
4.54529e+06
4.53645e+06
4.52763e+06
4.51881e+06
4.51001e+06
4.50122e+06
4.49243e+06
4.48366e+06
4.4749e+06
4.46614e+06
4.45739e+06
4.44865e+06
4.43992e+06
4.43119e+06
4.42247e+06
4.41376e+06
4.40506e+06
4.39636e+06
4.38766e+06
4.37897e+06
4.37029e+06
4.36161e+06
4.35294e+06
4.34427e+06
4.33561e+06
4.32695e+06
4.31829e+06
4.30964e+06
4.30099e+06
4.29234e+06
4.2837e+06
4.27506e+06
4.26643e+06
4.2578e+06
4.24917e+06
4.24054e+06
4.23192e+06
4.2233e+06
4.21468e+06
4.20607e+06
4.19745e+06
4.18885e+06
4.18024e+06
4.17164e+06
4.16303e+06
4.15444e+06
4.14584e+06
4.13724e+06
4.12865e+06
4.12006e+06
4.11147e+06
4.10289e+06
4.0943e+06
4.08572e+06
4.07713e+06
4.06855e+06
4.05997e+06
4.05139e+06
4.04281e+06
4.03423e+06
4.02565e+06
4.01707e+06
4.00848e+06
3.9999e+06
3.99132e+06
3.98273e+06
3.97414e+06
3.96555e+06
3.95696e+06
3.94837e+06
3.93977e+06
3.93117e+06
3.92257e+06
3.91396e+06
3.90535e+06
3.89673e+06
3.88811e+06
3.87949e+06
3.87086e+06
3.86223e+06
3.85359e+06
3.84494e+06
3.83629e+06
3.82764e+06
3.81897e+06
3.8103e+06
3.80163e+06
3.79295e+06
3.78426e+06
3.77556e+06
3.76685e+06
3.75814e+06
3.74942e+06
3.74069e+06
3.73195e+06
3.7232e+06
3.71444e+06
3.70567e+06
3.69689e+06
3.6881e+06
3.6793e+06
3.67049e+06
3.66167e+06
3.65283e+06
3.64398e+06
3.63512e+06
3.62624e+06
3.61735e+06
3.60844e+06
3.59952e+06
3.59059e+06
3.58163e+06
3.57267e+06
3.56368e+06
3.55468e+06
3.54565e+06
3.53661e+06
3.52755e+06
3.51847e+06
3.50937e+06
3.50025e+06
3.4911e+06
3.48193e+06
3.47274e+06
3.46352e+06
3.45428e+06
3.44502e+06
3.43572e+06
3.4264e+06
3.41705e+06
3.40768e+06
3.39827e+06
3.38883e+06
3.37936e+06
3.36986e+06
3.36032e+06
3.35074e+06
3.34113e+06
3.33148e+06
3.32178e+06
3.31205e+06
3.30227e+06
3.29246e+06
3.2826e+06
3.27269e+06
3.26275e+06
3.25274e+06
3.24271e+06
3.2326e+06
3.22248e+06
3.21232e+06
3.20215e+06
3.19198e+06
3.18182e+06
3.17175e+06
3.16181e+06
3.15198e+06
3.14224e+06
3.13254e+06
3.12283e+06
3.11311e+06
3.10335e+06
3.09356e+06
3.08373e+06
3.07388e+06
3.06402e+06
3.05415e+06
3.04429e+06
3.03442e+06
3.02456e+06
3.0147e+06
3.00484e+06
2.99497e+06
2.98509e+06
2.97522e+06
2.96534e+06
2.95545e+06
2.94558e+06
2.9357e+06
2.92583e+06
2.91596e+06
2.9061e+06
2.89624e+06
2.88639e+06
2.87655e+06
2.86672e+06
2.85689e+06
2.84707e+06
2.83726e+06
2.82747e+06
2.81768e+06
2.80792e+06
2.79817e+06
2.78844e+06
2.77873e+06
2.76904e+06
2.75937e+06
2.74973e+06
2.74011e+06
2.73051e+06
2.72095e+06
2.71142e+06
2.70192e+06
2.69245e+06
2.68302e+06
2.67363e+06
2.66428e+06
2.65497e+06
2.64572e+06
2.63651e+06
2.62736e+06
2.61827e+06
2.60924e+06
2.60026e+06
2.59136e+06
2.58252e+06
2.57376e+06
2.56508e+06
2.55648e+06
2.54797e+06
2.53955e+06
2.53123e+06
2.523e+06
2.51489e+06
2.50688e+06
2.499e+06
2.49124e+06
2.48362e+06
2.47614e+06
2.46883e+06
2.46168e+06
2.45471e+06
2.44794e+06
2.44138e+06
2.43503e+06
2.42892e+06
2.42308e+06
2.41756e+06
2.4124e+06
2.40758e+06
2.40302e+06
2.39868e+06
2.39457e+06
2.39083e+06
2.38753e+06
2.38454e+06
2.38233e+06
2.38161e+06
2.38179e+06
2.38238e+06
2.38312e+06
2.38325e+06
2.38104e+06
)
;

boundaryField
{
    sideLeft
    {
        type            symmetryPlane;
    }
    sideRight
    {
        type            myWaveTransmissive;
        phi             phi.air;
        rho             rho.air;
        psi             thermo:psi.air;
        gamma           1.4;
        fieldInf        100000;
        lInf            10;
        value           uniform 2.37533e+06;
    }
    topbottom
    {
        type            empty;
    }
    frontback
    {
        type            empty;
    }
}


// ************************************************************************* //
