/*--------------------------------*- C++ -*----------------------------------*\
| =========                 |                                                 |
| \\      /  F ield         | OpenFOAM: The Open Source CFD Toolbox           |
|  \\    /   O peration     | Version:  2.4.0                                 |
|   \\  /    A nd           | Web:      www.OpenFOAM.org                      |
|    \\/     M anipulation  |                                                 |
\*---------------------------------------------------------------------------*/
FoamFile
{
    version     2.0;
    format      ascii;
    class       surfaceScalarField;
    location    "0.1";
    object      phi;
}
// * * * * * * * * * * * * * * * * * * * * * * * * * * * * * * * * * * * * * //

dimensions      [0 3 -1 0 0 0 0];

internalField   nonuniform List<scalar> 
999
(
-1.15089e-12
-1.33169e-12
-1.89687e-12
-1.72496e-12
-2.75889e-12
-3.22645e-12
-2.83562e-12
-2.32423e-12
-3.03794e-12
-1.76884e-12
-2.28655e-12
-8.34429e-13
-6.84538e-13
1.34574e-13
-7.53381e-13
-8.91331e-13
-1.30039e-12
-4.22624e-13
-4.867e-13
-1.42109e-13
7.3319e-13
2.76227e-12
3.63595e-12
3.89855e-12
2.79223e-12
3.82502e-12
4.12833e-12
3.12791e-12
3.5694e-12
4.28814e-12
3.17775e-12
2.73642e-12
3.33598e-12
2.70082e-12
4.80587e-12
4.97902e-12
4.19398e-12
2.87849e-12
3.31357e-12
1.72292e-12
2.18581e-12
3.36892e-12
6.83288e-13
3.97214e-13
-8.55742e-13
-1.06801e-12
-9.72406e-13
-1.17989e-13
-4.59375e-13
-1.32923e-12
-8.34519e-13
-1.09574e-12
-5.50209e-13
9.84531e-14
-9.17041e-14
-4.16758e-13
7.0538e-13
7.56312e-13
2.12395e-12
2.72018e-12
1.14966e-12
1.56254e-12
1.14287e-12
5.27324e-13
6.54966e-20
-2.29538e-13
-7.69409e-13
-4.07707e-13
-4.6542e-13
-2.04779e-14
7.27743e-13
1.33943e-12
1.45829e-12
2.24012e-12
1.57811e-12
5.69398e-13
1.88071e-13
7.38104e-13
1.16788e-12
8.55439e-13
6.22285e-13
-9.24903e-13
-2.41585e-13
-5.2728e-14
4.44879e-13
2.33886e-12
1.69321e-12
1.57901e-12
6.82122e-13
6.61682e-13
5.08793e-13
-9.31886e-13
-1.17274e-12
-1.8829e-12
-1.8739e-12
-2.75309e-12
-2.64961e-12
-1.45909e-12
-2.13162e-13
-5.16386e-14
-1.42109e-13
-9.94761e-14
-1.18674e-12
-1.84742e-13
1.42113e-14
-6.18151e-13
-6.76999e-13
-9.24841e-13
-2.02319e-12
-2.60542e-12
-3.67256e-13
-1.6584e-13
-4.55194e-13
-1.79775e-12
-1.62629e-12
-1.7125e-12
-1.29923e-12
-4.78333e-13
1.24931e-13
3.11865e-13
4.79326e-13
-9.08319e-14
4.44248e-13
1.30526e-12
1.09158e-12
1.5259e-12
2.72411e-12
1.47072e-12
1.5017e-12
1.17874e-12
1.64582e-12
1.36427e-12
2.03989e-12
1.10898e-12
8.97971e-13
1.68908e-12
1.69743e-12
1.6608e-12
1.61282e-12
9.67e-13
-1.42905e-13
-3.51616e-13
-4.24737e-13
-1.2834e-12
-7.51419e-13
-1.48306e-13
3.04507e-13
-2.9818e-13
4.26325e-13
-1.30643e-12
-7.97265e-13
-1.62139e-13
-7.97778e-13
-1.64677e-12
-2.14732e-12
-2.96982e-12
-3.81586e-12
-2.47451e-12
-4.03157e-12
-3.78126e-12
-4.35738e-12
-3.74758e-12
-2.53461e-12
-1.39449e-12
-2.19079e-12
-2.55648e-12
-2.11901e-12
-2.44798e-12
-1.77147e-12
-2.35629e-12
-1.36607e-12
-1.41096e-12
-1.53928e-12
-7.88176e-13
-8.40235e-13
-1.121e-12
-1.23879e-12
-2.34529e-12
-1.67478e-12
-1.99264e-12
-2.21269e-12
-2.28905e-12
-4.20314e-12
-5.07518e-12
-4.64677e-12
-4.6918e-12
-3.48325e-12
-2.85852e-12
-1.68343e-12
-1.54227e-12
-9.98247e-13
-1.93977e-12
-4.52437e-13
3.34205e-13
2.98428e-13
-8.52647e-14
2.84217e-14
1.27803e-12
1.5965e-12
6.76012e-14
-4.54996e-13
2.07164e-13
1.42679e-13
2.31997e-13
-9.02025e-13
-7.6216e-13
-1.0729e-12
-4.29921e-13
-1.57701e-12
-1.51232e-12
-1.59708e-12
-2.42427e-12
-2.81385e-12
-2.77844e-12
-3.91592e-12
-3.10495e-12
-3.05091e-12
-2.75783e-12
-1.80232e-12
-1.11645e-12
-2.34152e-13
2.41584e-13
8.77165e-13
-8.28288e-13
-5.91676e-13
-8.14227e-13
-6.16255e-13
-3.38751e-14
-3.12639e-13
-5.6843e-14
-8.21883e-14
-1.03353e-12
-9.32552e-13
-1.2175e-12
-1.78662e-12
-3.13436e-12
-3.10378e-12
-2.09635e-12
-2.70907e-12
-2.10118e-12
-1.09852e-12
-6.29155e-13
-5.07579e-13
-7.84495e-13
-4.36178e-13
-9.39041e-13
-2.13163e-13
-3.97904e-13
-5.64336e-13
-5.71e-13
6.45529e-13
7.23856e-13
3.8177e-13
3.53284e-13
1.91331e-13
-4.87403e-13
-5.40013e-13
-1.49312e-12
-8.10163e-13
3.77538e-13
2.23319e-12
1.54848e-12
2.03172e-12
1.76243e-12
7.94066e-13
1.27899e-13
-4.40536e-13
-6.36053e-13
4.97957e-13
-5.08591e-13
-2.77209e-13
-8.45929e-13
-1.96946e-12
-4.25509e-13
-1.29969e-12
-1.33499e-12
-3.19789e-13
-1.25968e-13
-5.63107e-13
-1.4445e-13
-6.0935e-13
-1.42254e-12
-1.35499e-12
-2.5353e-12
-1.8009e-12
-1.48487e-12
-1.34975e-12
1.80654e-13
9.81826e-13
2.65407e-12
2.22461e-12
2.84873e-12
1.98319e-12
1.20886e-12
1.19172e-12
1.47963e-12
1.27943e-12
-1.70531e-13
-3.92784e-14
2.70006e-13
-7.24302e-13
-9.28645e-13
-5.91439e-14
2.5257e-13
1.77804e-12
7.65352e-13
5.71305e-13
1.57736e-12
2.10725e-12
1.3596e-12
1.14575e-12
1.74887e-12
1.47688e-12
1.38475e-12
1.36938e-12
2.59963e-12
1.89495e-12
1.63412e-12
4.72697e-13
6.44567e-13
1.38598e-12
-3.12639e-13
1.13687e-13
-1.38673e-12
-1.16542e-12
-1.74903e-12
-2.35643e-12
-1.86056e-12
-2.283e-12
-2.04646e-12
-4.31571e-13
-1.1891e-13
7.24109e-13
2.25112e-12
2.30008e-12
2.85844e-12
2.0027e-12
1.74519e-12
2.29184e-12
2.66054e-12
2.02231e-12
1.61152e-12
1.47313e-12
3.42572e-12
2.68556e-12
3.35921e-12
3.07316e-12
2.36854e-12
2.47297e-12
1.49655e-12
9.42979e-13
5.26327e-13
-3.12638e-13
1.34059e-12
3.00837e-12
5.01914e-12
4.53581e-12
4.22981e-12
4.43044e-12
3.18187e-12
3.66419e-12
3.66802e-12
4.13859e-12
3.73144e-12
3.2776e-12
3.03383e-12
1.94846e-12
1.26844e-12
1.26036e-12
1.57016e-12
1.04573e-12
2.20046e-12
2.35919e-12
3.19753e-12
3.54554e-12
3.92828e-12
3.52884e-12
2.31799e-12
2.0078e-12
1.27599e-12
1.97854e-12
6.03633e-13
4.44322e-13
6.55924e-13
6.41838e-13
-2.12135e-13
5.58525e-13
6.19309e-13
1.39612e-12
7.1521e-13
2.01967e-12
8.57574e-13
1.5817e-12
1.806e-12
1.96781e-12
1.57041e-12
1.17689e-12
9.77543e-13
1.30294e-12
2.25545e-12
1.92289e-12
3.02221e-12
3.35262e-12
2.77843e-12
3.42386e-12
3.61592e-12
3.25475e-12
4.06019e-12
2.84882e-12
2.28667e-12
3.04994e-12
3.41868e-12
2.70732e-12
2.9519e-12
2.38746e-12
1.49761e-12
7.24575e-13
-3.41059e-13
-4.26323e-14
2.6983e-13
1.15134e-12
7.10987e-14
-8.52651e-14
-5.29768e-13
-1.42108e-13
8.55722e-13
6.10013e-14
-6.92849e-13
7.35224e-14
1.3769e-13
2.21918e-13
-8.82275e-13
9.94761e-14
9.9475e-14
-1.89147e-12
-2.03008e-12
-2.31138e-12
-2.4724e-12
-1.89822e-12
-1.18211e-12
-2.23033e-15
-9.1681e-14
2.14446e-13
7.87933e-13
-3.14509e-14
1.62951e-12
1.28083e-12
-1.96253e-15
3.28968e-13
-2.84219e-14
2.55463e-13
5.77634e-14
-2.6266e-13
7.2696e-13
7.15074e-13
-1.01459e-13
-2.08011e-13
6.76696e-13
-2.13162e-13
1.52207e-13
8.09424e-13
1.40135e-12
1.97782e-12
2.5332e-12
2.482e-12
1.11442e-12
1.47034e-12
1.06897e-12
2.24299e-12
2.51753e-12
2.55063e-12
2.46393e-12
2.00431e-12
2.62538e-12
9.21027e-13
1.0466e-12
3.27769e-13
-2.15938e-14
7.856e-13
9.45878e-13
2.70354e-13
-1.94133e-12
-5.28178e-13
1.42102e-14
-7.69217e-13
-4.49297e-13
-1.03776e-12
1.42109e-13
3.22125e-13
-1.47754e-13
-2.10284e-12
-1.13984e-12
-1.52832e-12
-4.07102e-13
5.38348e-13
3.11168e-13
1.4121e-12
2.70421e-12
2.6942e-12
3.27738e-12
3.18212e-12
2.92321e-12
3.14891e-12
1.84461e-12
9.94745e-13
4.72358e-13
3.83693e-13
-4.45815e-13
-1.56431e-12
-2.76592e-12
-1.39718e-12
-1.04696e-12
2.27374e-13
3.69482e-13
7.17366e-13
7.72559e-13
1.42029e-12
2.05611e-12
9.50497e-13
6.08532e-13
5.16964e-13
2.75369e-13
5.04182e-13
-4.87531e-13
-9.49757e-14
-6.39547e-14
9.61402e-13
6.53763e-13
-7.10546e-14
5.63369e-13
-1.29539e-13
-1.42354e-13
6.34244e-15
-7.64678e-13
-1.30816e-12
-1.76075e-12
-7.42827e-13
-5.53278e-13
-1.82337e-12
-2.83983e-12
-2.62004e-12
-2.35609e-12
-4.83476e-12
-5.15579e-12
-4.67195e-12
-3.79449e-12
-2.8603e-12
-2.14503e-12
-5.26764e-13
-4.31136e-13
1.00062e-12
1.95624e-12
1.53344e-12
6.91332e-13
1.49286e-12
1.22183e-12
1.53048e-12
4.23573e-13
-2.32554e-13
-3.03275e-13
-5.09554e-13
-1.48079e-12
-1.00831e-12
-9.83678e-13
-1.69611e-12
-2.15285e-12
-1.00182e-12
-5.88353e-13
5.52067e-13
1.37318e-12
1.11999e-12
9.13901e-13
6.74054e-13
3.04255e-13
8.5265e-14
5.68434e-13
-1.86727e-13
-1.12907e-12
-2.31685e-12
-2.71505e-12
-2.65734e-12
-2.92577e-12
-2.79112e-12
-2.14189e-12
-4.83634e-13
-7.10542e-14
-3.2685e-13
4.09979e-13
7.15532e-13
-1.5258e-12
-2.10641e-12
-4.20805e-12
-2.80676e-12
-2.76385e-12
-2.62319e-12
-3.20418e-12
-3.16153e-12
-1.84909e-12
-2.78403e-12
-2.33999e-12
-2.62189e-12
-2.28467e-12
-1.49673e-12
-1.86678e-12
-1.38918e-12
-5.19264e-13
3.93857e-13
8.00077e-13
1.68369e-12
2.36753e-12
3.78036e-12
5.91455e-12
7.77586e-12
1.20198e-11
1.70701e-11
2.95136e-11
4.52126e-11
7.26347e-11
1.16249e-10
1.87283e-10
3.07504e-10
5.03339e-10
8.21024e-10
1.33198e-09
2.15432e-09
3.46933e-09
5.56287e-09
8.88259e-09
1.41246e-08
2.23667e-08
3.52678e-08
5.53748e-08
8.65747e-08
1.34768e-07
2.0888e-07
3.22335e-07
4.95231e-07
7.57494e-07
1.15348e-06
1.74859e-06
2.63875e-06
3.96392e-06
5.92727e-06
8.82213e-06
1.30697e-05
1.92716e-05
2.82822e-05
4.13083e-05
6.00448e-05
8.68585e-05
0.000125035
0.000179109
0.000255302
0.000362098
0.000510996
0.000717482
0.00100228
0.00139297
0.00192595
0.00264901
0.00362447
0.00493297
0.00667819
0.00899247
0.0120435
0.0160423
0.0212519
0.0279986
0.036683
0.0477934
0.06192
0.0797703
0.102184
0.130152
0.164826
0.207541
0.259823
0.323398
0.400206
0.492392
0.602314
0.732525
0.88576
1.06491
1.27301
1.51315
1.78849
2.10219
2.45733
2.85691
3.30372
3.80035
4.34911
4.95199
5.61061
6.32622
7.09962
7.93121
8.82096
9.7684
10.7727
11.8325
12.9464
14.1123
15.3281
16.5914
17.8996
19.2499
20.6396
22.0658
23.5255
25.016
26.5343
28.0779
29.6441
31.2303
32.8344
34.4541
36.0874
37.7324
39.3876
41.0513
42.7221
44.399
46.0809
47.7668
49.4558
51.1475
52.8411
54.5363
56.2325
57.9295
59.627
61.3248
63.0229
64.7209
66.419
68.117
69.8149
71.5127
73.2105
74.9082
76.6059
78.3037
80.0016
81.6997
83.398
85.0967
86.7958
88.4953
90.1954
91.8961
93.5975
95.2997
97.0028
98.7068
100.412
102.118
103.825
105.534
107.244
108.955
110.668
112.382
114.098
115.815
117.535
119.256
120.978
122.703
124.43
126.158
127.889
129.622
131.357
133.094
134.833
136.574
138.318
140.064
141.812
143.563
145.316
147.071
148.829
150.589
152.352
154.117
155.884
157.654
159.427
161.202
162.98
164.761
166.544
168.33
170.119
171.911
173.705
175.503
177.303
179.106
180.913
182.722
184.535
186.351
188.171
189.993
191.82
193.65
195.483
197.32
199.161
201.006
202.855
204.707
206.564
208.425
210.29
212.16
214.033
215.912
217.795
219.682
221.574
223.471
225.373
227.279
229.191
231.108
233.03
234.957
236.889
238.827
240.77
242.719
244.674
246.634
248.6
250.573
252.551
254.535
256.526
258.523
260.527
262.537
264.554
266.578
268.608
270.646
272.692
274.744
276.805
278.873
280.949
283.033
285.125
287.226
289.335
291.453
293.579
295.715
297.86
300.014
302.179
304.353
306.537
308.731
310.937
313.153
315.38
317.618
319.868
322.129
324.403
326.689
328.988
331.3
333.625
335.963
338.316
340.682
343.064
345.461
347.874
350.304
352.75
355.214
357.695
360.192
362.707
365.241
367.795
370.369
372.964
375.578
378.212
380.863
383.531
386.214
388.614
391.004
393.382
395.75
398.113
400.475
402.839
405.21
407.586
409.971
412.358
414.751
417.146
419.543
421.94
424.338
426.737
429.137
431.537
433.94
436.342
438.746
441.149
443.553
445.955
448.357
450.757
453.157
455.554
457.95
460.343
462.734
465.121
467.506
469.889
472.269
474.644
477.014
479.38
481.74
484.095
486.442
488.783
491.117
493.443
495.761
498.071
500.371
502.662
504.942
507.212
509.468
511.713
513.943
516.159
518.358
520.541
522.706
524.853
526.979
529.087
531.171
533.233
535.267
537.278
539.257
541.211
543.13
545.02
546.874
548.693
550.472
552.212
553.907
555.556
557.153
558.697
560.181
561.602
562.954
564.236
565.443
566.566
567.589
568.493
569.271
569.947
570.549
571.084
571.517
571.81
571.966
571.94
571.539
570.68
569.554
568.163
567.436
568.419
)
;

boundaryField
{
    sideLeft
    {
        type            symmetryPlane;
        value           uniform 0;
    }
    sideRight
    {
        type            calculated;
        value           uniform 571.134;
    }
    topbottom
    {
        type            empty;
        value           nonuniform 0();
    }
    frontback
    {
        type            empty;
        value           nonuniform 0();
    }
}


// ************************************************************************* //
