/*--------------------------------*- C++ -*----------------------------------*\
| =========                 |                                                 |
| \\      /  F ield         | OpenFOAM: The Open Source CFD Toolbox           |
|  \\    /   O peration     | Version:  2.4.0                                 |
|   \\  /    A nd           | Web:      www.OpenFOAM.org                      |
|    \\/     M anipulation  |                                                 |
\*---------------------------------------------------------------------------*/
FoamFile
{
    version     2.0;
    format      ascii;
    class       surfaceScalarField;
    location    "0.1";
    object      phi.water;
}
// * * * * * * * * * * * * * * * * * * * * * * * * * * * * * * * * * * * * * //

dimensions      [0 3 -1 0 0 0 0];

internalField   nonuniform List<scalar> 
999
(
-1.49195e-12
-1.61591e-12
-1.61265e-12
-1.66811e-12
-3.32733e-12
-2.88539e-12
-2.43772e-12
-3.23372e-12
-2.41266e-12
-1.59831e-12
-2.22971e-12
-8.91272e-13
-7.41381e-13
-1.49643e-13
-5.8285e-13
-7.20801e-13
-1.07302e-12
-4.79467e-13
-3.1617e-13
-1.98952e-13
6.19503e-13
2.98965e-12
3.40858e-12
4.3533e-12
2.6217e-12
3.59764e-12
4.29886e-12
2.73e-12
3.85362e-12
4.17445e-12
3.17775e-12
3.07748e-12
3.05177e-12
2.87135e-12
4.63534e-12
4.92218e-12
4.53504e-12
2.70796e-12
3.0862e-12
1.66608e-12
2.18581e-12
3.53945e-12
7.96975e-13
-2.28063e-13
-5.71525e-13
-1.1817e-12
-5.74503e-13
-2.8852e-13
-6.86748e-13
-1.10186e-12
-9.48206e-13
-1.26627e-12
-2.09149e-13
-1.85764e-13
2.19827e-14
-4.73601e-13
5.91694e-13
1.04053e-12
2.12395e-12
2.72018e-12
1.03597e-12
1.5057e-12
1.42709e-12
5.84168e-13
-3.4106e-13
-2.86382e-13
-7.12565e-13
-2.9402e-13
-6.92794e-13
3.63655e-14
6.70899e-13
1.56681e-12
1.45829e-12
2.18328e-12
1.29389e-12
5.12555e-13
1.31227e-13
7.94948e-13
7.69974e-13
1.25334e-12
7.92815e-13
-9.24903e-13
-2.98428e-13
2.88333e-13
4.69755e-14
2.28202e-12
1.86374e-12
1.52217e-12
6.82122e-13
6.61682e-13
6.79323e-13
-8.18199e-13
-1.34328e-12
-1.59868e-12
-1.93074e-12
-2.92362e-12
-2.82014e-12
-1.45909e-12
-2.70005e-13
-1.65325e-13
-2.84217e-14
-4.40537e-13
-7.88841e-13
-7.10548e-14
1.42113e-14
-4.47621e-13
-1.18859e-12
-7.54311e-13
-2.25056e-12
-2.43489e-12
-3.67256e-13
4.68992e-15
-4.55194e-13
-2.13881e-12
-1.39892e-12
-1.76934e-12
-1.01501e-12
-7.05707e-13
3.52304e-13
7.09769e-13
8.14219e-14
-2.04519e-13
3.30561e-13
1.13473e-12
1.43264e-12
1.46906e-12
2.32621e-12
1.47072e-12
1.67223e-12
1.23558e-12
1.75951e-12
1.25059e-12
2.26727e-12
1.10898e-12
7.84284e-13
1.74593e-12
1.81111e-12
1.6608e-12
1.38545e-12
1.02384e-12
-3.13435e-13
-1.81085e-13
-5.95267e-13
-8.85499e-13
-5.80888e-13
-2.61993e-13
2.02898e-14
9.97237e-14
-8.52653e-14
-1.19275e-12
-6.26735e-13
-1.62139e-13
-7.97778e-13
-1.8173e-12
-2.31785e-12
-3.02666e-12
-3.64533e-12
-2.64504e-12
-3.57682e-12
-4.17917e-12
-4.69844e-12
-3.46337e-12
-2.70514e-12
-1.11028e-12
-2.02026e-12
-2.49964e-12
-2.23269e-12
-2.27745e-12
-2.05569e-12
-1.95839e-12
-1.76397e-12
-1.12675e-12
-1.76665e-12
-7.31333e-13
-1.06761e-12
-1.29153e-12
-1.29564e-12
-2.06108e-12
-2.07268e-12
-1.48105e-12
-2.26954e-12
-2.45958e-12
-3.86208e-12
-4.9615e-12
-4.70362e-12
-4.57811e-12
-3.71062e-12
-3.02905e-12
-1.85396e-12
-1.37174e-12
-1.11193e-12
-1.65555e-12
-6.79811e-13
6.75265e-13
1.42109e-14
-3.69482e-13
3.12639e-13
1.27803e-12
1.31229e-12
4.08662e-13
-3.98152e-13
9.34772e-14
5.40583e-13
-2.2275e-13
-9.02025e-13
-9.3269e-13
-9.02367e-13
-8.84668e-13
-1.23595e-12
-1.51232e-12
-1.3697e-12
-2.5948e-12
-3.04122e-12
-2.43738e-12
-4.1433e-12
-3.04811e-12
-3.1646e-12
-2.92836e-12
-1.40442e-12
-8.89078e-13
-5.75212e-13
-9.94761e-14
7.63479e-13
-1.46167e-13
-6.4852e-13
-8.14227e-13
-3.88882e-13
-7.7284e-13
-2.84222e-14
4.00528e-19
-5.36936e-13
-6.35625e-13
-8.18865e-13
-8.76437e-13
-1.95715e-12
-3.13436e-12
-2.8764e-12
-2.5511e-12
-2.59538e-12
-2.27171e-12
-9.84837e-13
-4.01782e-13
-5.64423e-13
-7.84495e-13
-5.49865e-13
-1.2801e-12
-9.94757e-14
-1.7053e-13
-6.78023e-13
-4.57313e-13
3.61312e-13
6.67013e-13
3.8177e-13
4.66971e-13
1.91331e-13
-9.4215e-13
-5.40013e-13
-1.26575e-12
-8.67006e-13
6.04911e-13
2.06266e-12
1.71901e-12
1.97487e-12
1.53505e-12
1.07828e-12
-9.94751e-14
-9.94759e-14
-4.0868e-13
3.8427e-13
-1.6753e-13
-3.34052e-13
-1.30068e-12
-1.79893e-12
-9.371e-13
-8.44943e-13
-1.33499e-12
-5.47163e-13
-1.25968e-13
-5.63107e-13
-8.76064e-14
-5.52506e-13
-1.42254e-12
-1.41184e-12
-2.70583e-12
-1.34615e-12
-2.28068e-12
-8.95003e-13
2.37497e-13
9.24982e-13
2.99513e-12
1.99724e-12
2.84873e-12
1.58529e-12
1.83414e-12
9.07499e-13
1.36595e-12
1.27943e-12
1.13686e-13
-1.52965e-13
4.26327e-14
-4.96929e-13
-8.14958e-13
-2.29674e-13
4.79943e-13
1.43698e-12
9.92726e-13
4.00775e-13
1.52051e-12
2.16409e-12
1.24592e-12
1.25944e-12
1.74887e-12
1.59057e-12
1.32791e-12
1.31254e-12
2.48594e-12
1.61074e-12
1.86149e-12
5.86383e-13
1.8982e-13
1.27229e-12
4.83169e-13
-2.27374e-13
-1.32989e-12
-1.10858e-12
-1.69219e-12
-2.29958e-12
-1.80372e-12
-2.16932e-12
-1.81909e-12
-9.43161e-13
-5.22344e-15
8.94639e-13
1.9669e-12
2.41377e-12
2.57422e-12
2.34376e-12
1.68835e-12
2.06446e-12
2.71738e-12
2.02231e-12
1.49783e-12
1.87103e-12
3.14151e-12
2.91294e-12
3.35921e-12
3.07316e-12
2.65276e-12
2.18876e-12
2.23552e-12
8.29292e-13
-3.26324e-13
1.42109e-13
1.11322e-12
3.00837e-12
4.62123e-12
5.10424e-12
4.11612e-12
4.3736e-12
3.40924e-12
3.72103e-12
3.55434e-12
4.30912e-12
3.44722e-12
3.16391e-12
3.3749e-12
1.66424e-12
1.32528e-12
1.08983e-12
1.51332e-12
1.32994e-12
2.14362e-12
2.52972e-12
2.85647e-12
4.17081e-12
3.64406e-12
3.41515e-12
2.6022e-12
1.60989e-12
1.1623e-12
2.03538e-12
1.11522e-12
1.60105e-13
4.85394e-13
4.14464e-13
4.13142e-13
3.31152e-13
7.32996e-13
1.33928e-12
9.42584e-13
1.84914e-12
8.57574e-13
1.41117e-12
2.09022e-12
2.25203e-12
1.39987e-12
1.29057e-12
8.63856e-13
1.13241e-12
2.14177e-12
1.8092e-12
3.02221e-12
3.69368e-12
3.0058e-12
3.0828e-12
3.21801e-12
3.53897e-12
4.17388e-12
2.79198e-12
2.4572e-12
3.22047e-12
3.19131e-12
2.87785e-12
2.78137e-12
2.55799e-12
1.72498e-12
6.10888e-13
-6.8212e-13
-2.13163e-13
5.54048e-13
1.15134e-12
1.42553e-14
3.69482e-13
-8.70828e-13
-4.26325e-13
1.13994e-12
2.31531e-13
-6.92849e-13
1.6679e-14
2.51377e-13
1.65075e-13
-1.16649e-12
3.83693e-13
-2.98429e-13
-1.26619e-12
-2.14376e-12
-2.36823e-12
-2.64293e-12
-2.01191e-12
-8.97894e-13
-2.86447e-13
-9.1681e-14
4.4182e-13
1.05812e-13
8.212e-13
1.45898e-12
1.05346e-12
-1.15649e-13
4.42655e-13
-8.52653e-14
8.49331e-14
5.77634e-14
1.35244e-13
6.70117e-13
1.4664e-13
2.39602e-13
-9.43237e-14
5.06166e-13
-4.26319e-14
1.52207e-13
8.09424e-13
1.40135e-12
1.97782e-12
2.5332e-12
2.53884e-12
1.28495e-12
1.07244e-12
9.55284e-13
2.52721e-12
2.63122e-12
2.49379e-12
2.23655e-12
2.17484e-12
2.73907e-12
9.77871e-13
1.10345e-12
3.27769e-13
-7.84372e-14
7.28756e-13
9.45878e-13
3.27198e-13
-1.54343e-12
-1.09661e-12
7.10536e-14
-8.26061e-13
-5.62984e-13
-6.96695e-13
-2.8421e-14
1.51595e-13
2.5015e-13
-2.50074e-12
-1.19668e-12
-1.18726e-12
-3.50258e-13
3.10975e-13
4.81698e-13
1.58263e-12
2.41999e-12
2.6942e-12
3.39107e-12
3.40949e-12
2.29793e-12
3.43313e-12
2.01514e-12
1.33581e-12
3.01828e-13
-1.84741e-13
-2.18441e-13
-1.16641e-12
-2.70907e-12
-1.34033e-12
-1.33118e-12
2.29304e-19
4.26326e-13
6.60523e-13
6.58872e-13
1.53398e-12
2.34033e-12
7.23124e-13
5.51689e-13
3.46434e-13
5.59586e-13
2.76808e-13
-7.14905e-13
2.46085e-13
4.97321e-14
8.47715e-13
4.26389e-13
-1.42111e-14
5.63369e-13
-3.56913e-13
1.41863e-13
6.34245e-15
-3.09931e-13
-1.76291e-12
-1.87443e-12
-7.42827e-13
-4.96435e-13
-1.42547e-12
-2.61245e-12
-3.07479e-12
-2.52662e-12
-4.26632e-12
-5.44001e-12
-4.89932e-12
-3.62396e-12
-3.08768e-12
-1.86081e-12
-5.26764e-13
-3.17449e-13
7.73246e-13
1.27412e-12
1.93134e-12
1.03239e-12
1.43602e-12
1.33552e-12
1.24626e-12
5.94103e-13
-4.03084e-13
-1.89588e-13
-6.80084e-13
-1.31026e-12
-1.06515e-12
-9.26835e-13
-1.8098e-12
-1.98232e-12
-1.17235e-12
-2.47293e-13
6.08911e-13
1.03211e-12
1.17683e-12
1.31181e-12
3.32993e-13
9.29533e-13
-1.98952e-13
2.84217e-13
-2.43571e-13
-1.64066e-12
-1.74842e-12
-2.20346e-12
-3.22577e-12
-3.0963e-12
-3.07534e-12
-1.80083e-12
-5.40477e-13
-7.10542e-14
-9.9476e-14
3.53135e-13
4.31315e-13
-1.63949e-12
-1.99272e-12
-3.98068e-12
-2.86361e-12
-3.04807e-12
-2.39581e-12
-3.37471e-12
-2.5931e-12
-1.84909e-12
-3.29562e-12
-2.39683e-12
-2.45136e-12
-2.22783e-12
-1.55357e-12
-1.75309e-12
-1.55971e-12
-4.62421e-13
5.64387e-13
9.13764e-13
1.45632e-12
2.31068e-12
3.89405e-12
5.85771e-12
7.71902e-12
1.25314e-11
1.70701e-11
2.84904e-11
4.50421e-11
7.26347e-11
1.15624e-10
1.8643e-10
3.06481e-10
5.01349e-10
8.17159e-10
1.32686e-09
2.14568e-09
3.4558e-09
5.5415e-09
8.84922e-09
1.40727e-08
2.22864e-08
3.51425e-08
5.51827e-08
8.62801e-08
1.34319e-07
2.08198e-07
3.21306e-07
4.93683e-07
7.5518e-07
1.15004e-06
1.74348e-06
2.63122e-06
3.95288e-06
5.91115e-06
8.79873e-06
1.30359e-05
1.9223e-05
2.82127e-05
4.12096e-05
5.99052e-05
8.6662e-05
0.00012476
0.000178726
0.000254773
0.00036137
0.00051
0.000716127
0.00100045
0.00139051
0.00192266
0.00264465
0.00361871
0.0049254
0.00666833
0.00897971
0.0120271
0.0160213
0.0212253
0.027965
0.0366409
0.0477411
0.0618554
0.0796911
0.102088
0.130035
0.164687
0.207375
0.259627
0.323169
0.399939
0.492085
0.601963
0.732127
0.885313
1.06442
1.27246
1.51254
1.78784
2.10148
2.45658
2.85611
3.30288
3.79948
4.34822
4.95108
5.6097
6.3253
7.09872
7.93032
8.82009
9.76757
10.7719
11.8318
12.9457
14.1116
15.3275
16.5909
17.8991
19.2496
20.6393
22.0655
23.5253
25.0158
26.5342
28.0778
29.644
31.2304
32.8345
34.4542
36.0875
37.7326
39.3878
41.0515
42.7224
44.3993
46.0811
47.767
49.4561
51.1478
52.8414
54.5365
56.2328
57.9298
59.6273
61.3251
63.0231
64.7212
66.4193
68.1172
69.8151
71.513
73.2107
74.9084
76.6062
78.304
80.0019
81.6999
83.3983
85.0969
86.796
88.4955
90.1956
91.8963
93.5977
95.2999
97.003
98.707
100.412
102.118
103.826
105.534
107.244
108.955
110.668
112.382
114.098
115.816
117.535
119.256
120.979
122.703
124.43
126.159
127.889
129.622
131.357
133.094
134.833
136.574
138.318
140.064
141.812
143.563
145.316
147.071
148.829
150.589
152.352
154.117
155.884
157.655
159.427
161.203
162.981
164.761
166.544
168.33
170.119
171.911
173.705
175.503
177.303
179.106
180.913
182.722
184.535
186.351
188.171
189.994
191.82
193.65
195.483
197.32
199.161
201.006
202.855
204.707
206.564
208.425
210.29
212.16
214.034
215.912
217.795
219.682
221.574
223.471
225.373
227.28
229.191
231.108
233.03
234.957
236.889
238.827
240.771
242.719
244.674
246.634
248.601
250.573
252.551
254.535
256.526
258.523
260.527
262.537
264.554
266.578
268.608
270.647
272.692
274.745
276.805
278.873
280.949
283.033
285.125
287.226
289.335
291.453
293.579
295.715
297.86
300.014
302.179
304.353
306.537
308.731
310.937
313.153
315.38
317.618
319.868
322.13
324.403
326.689
328.988
331.3
333.625
335.963
338.316
340.682
343.064
345.461
347.874
350.303
352.75
355.214
357.695
360.192
362.707
365.241
367.795
370.369
372.964
375.578
378.212
380.863
383.531
386.214
388.614
391.004
393.382
395.75
398.113
400.475
402.839
405.21
407.586
409.971
412.358
414.751
417.146
419.543
421.94
424.338
426.737
429.137
431.537
433.94
436.342
438.746
441.149
443.553
445.955
448.357
450.757
453.157
455.554
457.95
460.343
462.734
465.121
467.506
469.889
472.269
474.643
477.015
479.38
481.74
484.094
486.442
488.783
491.117
493.443
495.761
498.071
500.371
502.662
504.942
507.211
509.469
511.713
513.943
516.159
518.358
520.541
522.706
524.852
526.979
529.086
531.171
533.232
535.267
537.277
539.257
541.211
543.13
545.02
546.874
548.693
550.472
552.212
553.907
555.556
557.153
558.697
560.181
561.602
562.954
564.236
565.443
566.566
567.589
568.493
569.271
569.947
570.549
571.084
571.518
571.812
571.965
571.937
571.534
570.674
569.556
568.165
567.437
568.416
)
;

boundaryField
{
    sideLeft
    {
        type            symmetryPlane;
        value           uniform 0;
    }
    sideRight
    {
        type            calculated;
        value           uniform 2488.89;
    }
    topbottom
    {
        type            empty;
        value           nonuniform 0();
    }
    frontback
    {
        type            empty;
        value           nonuniform 0();
    }
}


// ************************************************************************* //
