/*--------------------------------*- C++ -*----------------------------------*\
| =========                 |                                                 |
| \\      /  F ield         | OpenFOAM: The Open Source CFD Toolbox           |
|  \\    /   O peration     | Version:  2.4.0                                 |
|   \\  /    A nd           | Web:      www.OpenFOAM.org                      |
|    \\/     M anipulation  |                                                 |
\*---------------------------------------------------------------------------*/
FoamFile
{
    version     2.0;
    format      ascii;
    class       volScalarField;
    location    "0.1";
    object      pMean;
}
// * * * * * * * * * * * * * * * * * * * * * * * * * * * * * * * * * * * * * //

dimensions      [1 -1 -2 0 0 0 0];

internalField   nonuniform List<scalar> 
1000
(
5e+06
5e+06
5e+06
5e+06
5e+06
5e+06
5e+06
5e+06
5e+06
5e+06
5e+06
5e+06
5e+06
5e+06
5e+06
5e+06
5e+06
5e+06
5e+06
5e+06
5e+06
5e+06
5e+06
5e+06
5e+06
5e+06
5e+06
5e+06
5e+06
5e+06
5e+06
5e+06
5e+06
5e+06
5e+06
5e+06
5e+06
5e+06
5e+06
5e+06
5e+06
5e+06
5e+06
5e+06
5e+06
5e+06
5e+06
5e+06
5e+06
5e+06
5e+06
5e+06
5e+06
5e+06
5e+06
5e+06
5e+06
5e+06
5e+06
5e+06
5e+06
5e+06
5e+06
5e+06
5e+06
5e+06
5e+06
5e+06
5e+06
5e+06
5e+06
5e+06
5e+06
5e+06
5e+06
5e+06
5e+06
5e+06
5e+06
5e+06
5e+06
5e+06
5e+06
5e+06
5e+06
5e+06
5e+06
5e+06
5e+06
5e+06
5e+06
5e+06
5e+06
5e+06
5e+06
5e+06
5e+06
5e+06
5e+06
5e+06
5e+06
5e+06
5e+06
5e+06
5e+06
5e+06
5e+06
5e+06
5e+06
5e+06
5e+06
5e+06
5e+06
5e+06
5e+06
5e+06
5e+06
5e+06
5e+06
5e+06
5e+06
5e+06
5e+06
5e+06
5e+06
5e+06
5e+06
5e+06
5e+06
5e+06
5e+06
5e+06
5e+06
5e+06
5e+06
5e+06
5e+06
5e+06
5e+06
5e+06
5e+06
5e+06
5e+06
5e+06
5e+06
5e+06
5e+06
5e+06
5e+06
5e+06
5e+06
5e+06
5e+06
5e+06
5e+06
5e+06
5e+06
5e+06
5e+06
5e+06
5e+06
5e+06
5e+06
5e+06
5e+06
5e+06
5e+06
5e+06
5e+06
5e+06
5e+06
5e+06
5e+06
5e+06
5e+06
5e+06
5e+06
5e+06
5e+06
5e+06
5e+06
5e+06
5e+06
5e+06
5e+06
5e+06
5e+06
5e+06
5e+06
5e+06
5e+06
5e+06
5e+06
5e+06
5e+06
5e+06
5e+06
5e+06
5e+06
5e+06
5e+06
5e+06
5e+06
5e+06
5e+06
5e+06
5e+06
5e+06
5e+06
5e+06
5e+06
5e+06
5e+06
5e+06
5e+06
5e+06
5e+06
5e+06
5e+06
5e+06
5e+06
5e+06
5e+06
5e+06
5e+06
5e+06
5e+06
5e+06
5e+06
5e+06
5e+06
5e+06
5e+06
5e+06
5e+06
5e+06
5e+06
5e+06
5e+06
5e+06
5e+06
5e+06
5e+06
5e+06
5e+06
5e+06
5e+06
5e+06
5e+06
5e+06
5e+06
5e+06
5e+06
5e+06
5e+06
5e+06
5e+06
5e+06
5e+06
5e+06
5e+06
5e+06
5e+06
5e+06
5e+06
5e+06
5e+06
5e+06
5e+06
5e+06
5e+06
5e+06
5e+06
5e+06
5e+06
5e+06
5e+06
5e+06
5e+06
5e+06
5e+06
5e+06
5e+06
5e+06
5e+06
5e+06
5e+06
5e+06
5e+06
5e+06
5e+06
5e+06
5e+06
5e+06
5e+06
5e+06
5e+06
5e+06
5e+06
5e+06
5e+06
5e+06
5e+06
5e+06
5e+06
5e+06
5e+06
5e+06
5e+06
5e+06
5e+06
5e+06
5e+06
5e+06
5e+06
5e+06
5e+06
5e+06
5e+06
5e+06
5e+06
5e+06
5e+06
5e+06
5e+06
5e+06
5e+06
5e+06
5e+06
5e+06
5e+06
5e+06
5e+06
5e+06
5e+06
5e+06
5e+06
5e+06
5e+06
5e+06
5e+06
5e+06
5e+06
5e+06
5e+06
5e+06
5e+06
5e+06
5e+06
5e+06
5e+06
5e+06
5e+06
5e+06
5e+06
5e+06
5e+06
5e+06
5e+06
5e+06
5e+06
5e+06
5e+06
5e+06
5e+06
5e+06
5e+06
5e+06
5e+06
5e+06
5e+06
5e+06
5e+06
5e+06
5e+06
5e+06
5e+06
5e+06
5e+06
5e+06
5e+06
5e+06
5e+06
5e+06
5e+06
5e+06
5e+06
5e+06
5e+06
5e+06
5e+06
5e+06
5e+06
5e+06
5e+06
5e+06
5e+06
5e+06
5e+06
5e+06
5e+06
5e+06
5e+06
5e+06
5e+06
5e+06
5e+06
5e+06
5e+06
5e+06
5e+06
5e+06
5e+06
5e+06
5e+06
5e+06
5e+06
5e+06
5e+06
5e+06
5e+06
5e+06
5e+06
5e+06
5e+06
5e+06
5e+06
5e+06
5e+06
5e+06
5e+06
5e+06
5e+06
5e+06
5e+06
5e+06
5e+06
5e+06
5e+06
5e+06
5e+06
5e+06
5e+06
5e+06
5e+06
5e+06
5e+06
5e+06
5e+06
5e+06
5e+06
5e+06
5e+06
5e+06
5e+06
5e+06
5e+06
5e+06
5e+06
5e+06
5e+06
5e+06
5e+06
5e+06
5e+06
5e+06
5e+06
5e+06
5e+06
5e+06
5e+06
5e+06
5e+06
5e+06
5e+06
5e+06
5e+06
5e+06
5e+06
5e+06
5e+06
5e+06
5e+06
5e+06
5e+06
5e+06
5e+06
5e+06
5e+06
5e+06
5e+06
5e+06
5e+06
5e+06
5e+06
5e+06
5e+06
5e+06
5e+06
5e+06
5e+06
5e+06
5e+06
5e+06
5e+06
5e+06
5e+06
5e+06
5e+06
5e+06
5e+06
5e+06
5e+06
5e+06
5e+06
5e+06
5e+06
5e+06
5e+06
5e+06
5e+06
5e+06
5e+06
5e+06
5e+06
5e+06
5e+06
5e+06
5e+06
5e+06
5e+06
5e+06
5e+06
5e+06
5e+06
5e+06
5e+06
5e+06
5e+06
5e+06
5e+06
5e+06
5e+06
5e+06
5e+06
5e+06
5e+06
5e+06
5e+06
5e+06
5e+06
5e+06
5e+06
5e+06
5e+06
5e+06
5e+06
5e+06
5e+06
5e+06
5e+06
5e+06
5e+06
5e+06
5e+06
5e+06
5e+06
5e+06
5e+06
5e+06
5e+06
5e+06
5e+06
5e+06
5e+06
5e+06
5e+06
5e+06
5e+06
5e+06
5e+06
5e+06
5e+06
5e+06
5e+06
5e+06
5e+06
5e+06
5e+06
5e+06
5e+06
5e+06
5e+06
5e+06
5e+06
5e+06
5e+06
5e+06
5e+06
5e+06
5e+06
5e+06
5e+06
5e+06
5e+06
5e+06
5e+06
5e+06
5e+06
5e+06
5e+06
5e+06
5e+06
5e+06
5e+06
5e+06
5e+06
5e+06
5e+06
5e+06
5e+06
5e+06
5e+06
5e+06
5e+06
5e+06
5e+06
5e+06
5e+06
5e+06
5e+06
5e+06
5e+06
5e+06
5e+06
5e+06
5e+06
5e+06
5e+06
5e+06
5e+06
5e+06
5e+06
5e+06
5e+06
5e+06
5e+06
5e+06
5e+06
5e+06
5e+06
5e+06
5e+06
5e+06
5e+06
5e+06
5e+06
5e+06
5e+06
5e+06
5e+06
5e+06
5e+06
5e+06
5e+06
5e+06
5e+06
5e+06
5e+06
5e+06
5e+06
5e+06
4.99999e+06
4.99999e+06
4.99999e+06
4.99999e+06
4.99998e+06
4.99998e+06
4.99997e+06
4.99996e+06
4.99996e+06
4.99994e+06
4.99993e+06
4.99991e+06
4.9999e+06
4.99987e+06
4.99984e+06
4.99981e+06
4.99977e+06
4.99973e+06
4.99967e+06
4.99961e+06
4.99954e+06
4.99946e+06
4.99937e+06
4.99927e+06
4.99915e+06
4.99902e+06
4.99888e+06
4.99871e+06
4.99853e+06
4.99834e+06
4.99812e+06
4.99788e+06
4.99762e+06
4.99734e+06
4.99703e+06
4.9967e+06
4.99635e+06
4.99597e+06
4.99556e+06
4.99513e+06
4.99467e+06
4.99418e+06
4.99366e+06
4.99311e+06
4.99254e+06
4.99193e+06
4.9913e+06
4.99064e+06
4.98994e+06
4.98921e+06
4.98846e+06
4.98767e+06
4.98685e+06
4.986e+06
4.98512e+06
4.98421e+06
4.98327e+06
4.9823e+06
4.98129e+06
4.98025e+06
4.97919e+06
4.97809e+06
4.97696e+06
4.97579e+06
4.9746e+06
4.97338e+06
4.97212e+06
4.97083e+06
4.96951e+06
4.96816e+06
4.96678e+06
4.96537e+06
4.96393e+06
4.96245e+06
4.96094e+06
4.9594e+06
4.95783e+06
4.95623e+06
4.9546e+06
4.95293e+06
4.95124e+06
4.94951e+06
4.94775e+06
4.94596e+06
4.94414e+06
4.94229e+06
4.9404e+06
4.93848e+06
4.93653e+06
4.93455e+06
4.93254e+06
4.9305e+06
4.92842e+06
4.92631e+06
4.92417e+06
4.922e+06
4.9198e+06
4.91756e+06
4.91529e+06
4.91299e+06
4.91066e+06
4.9083e+06
4.9059e+06
4.90347e+06
4.90101e+06
4.89851e+06
4.89599e+06
4.89343e+06
4.89083e+06
4.88821e+06
4.88555e+06
4.88286e+06
4.88014e+06
4.87738e+06
4.87459e+06
4.87177e+06
4.86892e+06
4.86603e+06
4.86311e+06
4.86015e+06
4.85717e+06
4.85414e+06
4.85109e+06
4.848e+06
4.84488e+06
4.84172e+06
4.83853e+06
4.83531e+06
4.83205e+06
4.82876e+06
4.82544e+06
4.82208e+06
4.81868e+06
4.81525e+06
4.81179e+06
4.8083e+06
4.80476e+06
4.8012e+06
4.7976e+06
4.79396e+06
4.79029e+06
4.78659e+06
4.78285e+06
4.77907e+06
4.77526e+06
4.77141e+06
4.76753e+06
4.76361e+06
4.75966e+06
4.75567e+06
4.75165e+06
4.74758e+06
4.74349e+06
4.73935e+06
4.73518e+06
4.73098e+06
4.72673e+06
4.72245e+06
4.71814e+06
4.71378e+06
4.70939e+06
4.70496e+06
4.7005e+06
4.69599e+06
4.69145e+06
4.68687e+06
4.68226e+06
4.6776e+06
4.67291e+06
4.66818e+06
4.6634e+06
4.65859e+06
4.65375e+06
4.64886e+06
4.64393e+06
4.63896e+06
4.63396e+06
4.62891e+06
4.62383e+06
4.6187e+06
4.61353e+06
4.60832e+06
4.60308e+06
4.59779e+06
4.59246e+06
4.58708e+06
4.58167e+06
4.57621e+06
4.57071e+06
4.56517e+06
4.55959e+06
4.55396e+06
4.5483e+06
4.54258e+06
4.53683e+06
4.53103e+06
4.52518e+06
4.51929e+06
4.51336e+06
4.50738e+06
4.50136e+06
4.49529e+06
4.48917e+06
4.48301e+06
4.4768e+06
4.47055e+06
4.46424e+06
4.45789e+06
4.45149e+06
4.44505e+06
4.43855e+06
4.432e+06
4.42541e+06
4.41876e+06
4.41207e+06
4.40532e+06
4.39852e+06
4.39167e+06
4.38477e+06
4.37781e+06
4.37081e+06
4.36374e+06
4.35663e+06
4.34946e+06
4.34223e+06
4.33496e+06
4.32763e+06
4.32026e+06
4.31285e+06
4.3054e+06
4.29793e+06
4.29043e+06
4.2829e+06
4.27532e+06
4.2677e+06
4.26002e+06
4.25228e+06
4.2445e+06
4.23666e+06
4.22877e+06
4.22084e+06
4.21285e+06
4.20482e+06
4.19674e+06
4.18861e+06
4.18043e+06
4.1722e+06
4.16392e+06
4.15559e+06
4.14721e+06
4.13879e+06
4.13031e+06
4.12178e+06
4.11321e+06
4.10458e+06
4.09591e+06
4.08718e+06
4.07841e+06
4.06959e+06
4.06072e+06
4.0518e+06
4.04283e+06
4.03381e+06
4.02474e+06
4.01562e+06
4.00646e+06
3.99724e+06
3.98798e+06
3.97867e+06
3.96931e+06
3.9599e+06
3.95044e+06
3.94094e+06
3.93138e+06
3.92178e+06
3.91213e+06
3.90244e+06
3.8927e+06
3.88291e+06
3.87307e+06
3.86319e+06
3.85326e+06
3.84329e+06
3.83327e+06
3.82321e+06
3.8131e+06
3.80295e+06
3.79276e+06
3.78252e+06
3.77224e+06
3.76193e+06
3.75157e+06
3.74117e+06
3.73073e+06
3.72025e+06
3.70974e+06
3.69918e+06
3.6886e+06
3.67798e+06
3.66732e+06
3.65664e+06
3.64592e+06
3.63518e+06
3.62441e+06
3.61361e+06
3.60279e+06
3.59194e+06
3.58108e+06
3.5702e+06
3.55931e+06
3.5484e+06
3.53748e+06
3.52656e+06
3.51563e+06
3.50471e+06
3.49379e+06
3.48288e+06
3.47198e+06
3.4611e+06
3.45023e+06
3.43938e+06
3.42856e+06
3.41777e+06
3.40702e+06
3.39632e+06
3.38565e+06
3.37478e+06
3.36364e+06
)
;

boundaryField
{
    sideLeft
    {
        type            symmetryPlane;
    }
    sideRight
    {
        type            calculated;
        value           uniform 3.35699e+06;
    }
    topbottom
    {
        type            empty;
    }
    frontback
    {
        type            empty;
    }
}


// ************************************************************************* //
