/*--------------------------------*- C++ -*----------------------------------*\
| =========                 |                                                 |
| \\      /  F ield         | OpenFOAM: The Open Source CFD Toolbox           |
|  \\    /   O peration     | Version:  2.4.0                                 |
|   \\  /    A nd           | Web:      www.OpenFOAM.org                      |
|    \\/     M anipulation  |                                                 |
\*---------------------------------------------------------------------------*/
FoamFile
{
    version     2.0;
    format      ascii;
    class       volScalarField;
    location    "0.1";
    object      T.air;
}
// * * * * * * * * * * * * * * * * * * * * * * * * * * * * * * * * * * * * * //

dimensions      [0 0 0 1 0 0 0];

internalField   nonuniform List<scalar> 
1000
(
300
300
300
300
300
300
300
300
300
300
300
300
300
300
300
300
300
300
300
300
300
300
300
300
300
300
300
300
300
300
300
300
300
300
300
300
300
300
300
300
300
300
300
300
300
300
300
300
300
300
300
300
300
300
300
300
300
300
300
300
300
300
300
300
300
300
300
300
300
300
300
300
300
300
300
300
300
300
300
300
300
300
300
300
300
300
300
300
300
300
300
300
300
300
300
300
300
300
300
300
300
300
300
300
300
300
300
300
300
300
300
300
300
300
300
300
300
300
300
300
300
300
300
300
300
300
300
300
300
300
300
300
300
300
300
300
300
300
300
300
300
300
300
300
300
300
300
300
300
300
300
300
300
300
300
300
300
300
300
300
300
300
300
300
300
300
300
300
300
300
300
300
300
300
300
300
300
300
300
300
300
300
300
300
300
300
300
300
300
300
300
300
300
300
300
300
300
300
300
300
300
300
300
300
300
300
300
300
300
300
300
300
300
300
300
300
300
300
300
300
300
300
300
300
300
300
300
300
300
300
300
300
300
300
300
300
300
300
300
300
300
300
300
300
300
300
300
300
300
300
300
300
300
300
300
300
300
300
300
300
300
300
300
300
300
300
300
300
300
300
300
300
300
300
300
300
300
300
300
300
300
300
300
300
300
300
300
300
300
300
300
300
300
300
300
300
300
300
300
300
300
300
300
300
300
300
300
300
300
300
300
300
300
300
300
300
300
300
300
300
300
300
300
300
300
300
300
300
300
300
300
300
300
300
300
300
300
300
300
300
300
300
300
300
300
300
300
300
300
300
300
300
300
300
300
300
300
300
300
300
300
300
300
300
300
300
300
300
300
300
300
300
300
300
300
300
300
300
300
300
300
300
300
300
300
300
300
300
300
300
300
300
300
300
300
300
300
300
300
300
300
300
300
300
300
300
300
300
300
300
300
300
300
300
300
300
300
300
300
300
300
300
300
300
300
300
300
300
300
300
300
300
300
300
300
300
300
300
300
300
300
300
300
300
300
300
300
300
300
300
300
300
300
300
300
300
300
300
300
300
300
300
300
300
300
300
300
300
300
300
300
300
300
300
300
300
300
300
300
300
300
300
300
300
300
300
300
300
300
300
300
300
300
300
300
300
300
300
300
300
300
300
300
300
300
300
300
300
300
300
300
300
300
300
300
300
300
300
300
300
300
300
300
300
300
300
300
300
300
300
300
300
300
300
300
300
300
300
300
300
300
300
300
300
300
300
300
300
300
300
300
300
300
300
300
300
300
300
300
300
300
300
300
300
300
300
300
300
300
300
300
300
300
300
300
300
300
300
300
300
300
300
300
300
300
300
300
300
300
300
300
300
300
300
300
300
300
300
300
300
300
300
300
300
300
300
300
300
300
300
300
300
300
300
300
300
300
300
300
300
300
300
300
300
300
300
300
300
300
300
300
300
300
300
300
300
300
300
300
300
300
300
300
300
300
300
300
300
300
300
300
300
300
300
300
300
300
300
300
300
300
300
300
300
300
300
299.999
299.999
299.999
299.999
299.998
299.998
299.997
299.996
299.995
299.994
299.992
299.99
299.988
299.985
299.981
299.977
299.972
299.967
299.96
299.952
299.943
299.933
299.922
299.909
299.894
299.878
299.86
299.84
299.818
299.795
299.769
299.741
299.711
299.679
299.645
299.609
299.571
299.531
299.489
299.445
299.4
299.352
299.304
299.253
299.202
299.149
299.094
299.039
298.983
298.925
298.867
298.808
298.748
298.688
298.627
298.565
298.503
298.441
298.378
298.315
298.251
298.187
298.123
298.059
297.994
297.93
297.865
297.799
297.734
297.668
297.603
297.537
297.471
297.404
297.338
297.271
297.204
297.137
297.07
297.003
296.936
296.868
296.8
296.732
296.664
296.596
296.527
296.459
296.39
296.321
296.251
296.182
296.112
296.043
295.973
295.902
295.832
295.761
295.691
295.62
295.548
295.477
295.405
295.333
295.261
295.189
295.117
295.044
294.971
294.898
294.825
294.751
294.677
294.603
294.529
294.455
294.38
294.305
294.23
294.155
294.079
294.003
293.927
293.851
293.775
293.698
293.621
293.544
293.467
293.389
293.311
293.233
293.155
293.076
292.998
292.919
292.839
292.76
292.68
292.6
292.52
292.439
292.359
292.278
292.196
292.115
292.033
291.951
291.869
291.786
291.703
291.62
291.536
291.453
291.369
291.284
291.2
291.115
291.029
290.944
290.858
290.772
290.685
290.598
290.511
290.424
290.336
290.248
290.159
290.07
289.981
289.892
289.802
289.712
289.621
289.53
289.439
289.347
289.255
289.162
289.069
288.976
288.881
288.789
288.692
288.6
288.5
288.411
288.304
288.222
288.106
288.03
287.907
287.836
287.707
287.639
287.506
287.438
287.303
287.235
287.099
287.03
286.892
286.822
286.683
286.612
286.471
286.4
286.257
286.185
286.04
285.967
285.821
285.747
285.598
285.523
285.373
285.296
285.144
285.066
284.912
284.833
284.676
284.594
284.44
284.348
284.203
284.097
283.959
283.848
283.706
283.598
283.451
283.342
283.194
282.899
282.75
282.453
282.303
282.003
281.851
281.546
281.391
281.079
280.92
280.602
280.44
280.116
279.952
279.622
279.455
279.12
278.95
278.609
278.436
278.088
277.912
277.559
277.38
277.021
276.839
276.473
276.289
275.918
275.73
275.353
275.163
274.781
274.587
274.199
274.003
273.61
273.411
273.013
272.811
272.408
272.204
271.795
271.589
271.175
270.967
270.549
270.338
269.916
269.703
269.276
269.061
268.631
268.415
267.981
267.763
267.326
267.106
266.666
266.446
266.003
265.782
265.338
265.115
264.67
264.446
264.003
263.774
263.336
263.103
262.669
262.434
262.004
261.767
261.341
261.105
260.684
260.448
260.033
259.799
259.39
259.161
258.758
258.538
258.143
257.934
257.547
257.344
256.968
256.769
256.414
256.219
255.889
255.731
255.439
255.3
254.95
255.038
255.17
)
;

boundaryField
{
    sideLeft
    {
        type            symmetryPlane;
    }
    sideRight
    {
        type            zeroGradient;
    }
    topbottom
    {
        type            empty;
    }
    frontback
    {
        type            empty;
    }
}


// ************************************************************************* //
