/*--------------------------------*- C++ -*----------------------------------*\
| =========                 |                                                 |
| \\      /  F ield         | OpenFOAM: The Open Source CFD Toolbox           |
|  \\    /   O peration     | Version:  2.4.0                                 |
|   \\  /    A nd           | Web:      www.OpenFOAM.org                      |
|    \\/     M anipulation  |                                                 |
\*---------------------------------------------------------------------------*/
FoamFile
{
    version     2.0;
    format      ascii;
    class       volScalarField;
    location    "0.1";
    object      T.water;
}
// * * * * * * * * * * * * * * * * * * * * * * * * * * * * * * * * * * * * * //

dimensions      [0 0 0 1 0 0 0];

internalField   nonuniform List<scalar> 
1000
(
300
300
300
300
300
300
300
300
300
300
300
300
300
300
300
300
300
300
300
300
300
300
300
300
300
300
300
300
300
300
300
300
300
300
300
300
300
300
300
300
300
300
300
300
300
300
300
300
300
300
300
300
300
300
300
300
300
300
300
300
300
300
300
300
300
300
300
300
300
300
300
300
300
300
300
300
300
300
300
300
300
300
300
300
300
300
300
300
300
300
300
300
300
300
300
300
300
300
300
300
300
300
300
300
300
300
300
300
300
300
300
300
300
300
300
300
300
300
300
300
300
300
300
300
300
300
300
300
300
300
300
300
300
300
300
300
300
300
300
300
300
300
300
300
300
300
300
300
300
300
300
300
300
300
300
300
300
300
300
300
300
300
300
300
300
300
300
300
300
300
300
300
300
300
300
300
300
300
300
300
300
300
300
300
300
300
300
300
300
300
300
300
300
300
300
300
300
300
300
300
300
300
300
300
300
300
300
300
300
300
300
300
300
300
300
300
300
300
300
300
300
300
300
300
300
300
300
300
300
300
300
300
300
300
300
300
300
300
300
300
300
300
300
300
300
300
300
300
300
300
300
300
300
300
300
300
300
300
300
300
300
300
300
300
300
300
300
300
300
300
300
300
300
300
300
300
300
300
300
300
300
300
300
300
300
300
300
300
300
300
300
300
300
300
300
300
300
300
300
300
300
300
300
300
300
300
300
300
300
300
300
300
300
300
300
300
300
300
300
300
300
300
300
300
300
300
300
300
300
300
300
300
300
300
300
300
300
300
300
300
300
300
300
300
300
300
300
300
300
300
300
300
300
300
300
300
300
300
300
300
300
300
300
300
300
300
300
300
300
300
300
300
300
300
300
300
300
300
300
300
300
300
300
300
300
300
300
300
300
300
300
300
300
300
300
300
300
300
300
300
300
300
300
300
300
300
300
300
300
300
300
300
300
300
300
300
300
300
300
300
300
300
300
300
300
300
300
300
300
300
300
300
300
300
300
300
300
300
300
300
300
300
300
300
300
300
300
300
300
300
300
300
300
300
300
300
300
300
300
300
300
300
300
300
300
300
300
300
300
300
300
300
300
300
300
300
300
300
300
300
300
300
300
300
300
300
300
300
300
300
300
300
300
300
300
300
300
300
300
300
300
300
300
300
300
300
300
300
300
300
300
300
300
300
300
300
300
300
300
300
300
300
300
300
300
300
300
300
300
300
300
300
300
300
300
300
300
300
300
300
300
300
300
300
300
300
300
300
300
300
300
300
300
300
300
300
300
300
300
300
300
300
300
300
300
300
300
300
300
300
300
300
300
300
300
300
300
300
300
300
300
300
300
300
300
300
300
300
300
300
300
300
300
300
300
300
300
300
300
300
300
300
300
300
300
300
300
300
300
300
300
300
300
300
300
300
300
300
300
300
300
300
300
300
300
300
300
300
300
300
300
300
300
300
300
300
300
300
300
300
300
300
300
300
300
300
300
300
300
300
300
300
300
300
300
300
300
300
300
300
300
300
300
300
300
299.999
299.999
299.999
299.999
299.998
299.998
299.997
299.997
299.996
299.995
299.993
299.991
299.989
299.987
299.984
299.98
299.976
299.971
299.965
299.958
299.95
299.941
299.93
299.918
299.905
299.89
299.873
299.855
299.834
299.812
299.787
299.761
299.733
299.702
299.67
299.635
299.598
299.56
299.519
299.477
299.433
299.387
299.339
299.29
299.239
299.187
299.134
299.08
299.024
298.968
298.91
298.852
298.793
298.733
298.673
298.612
298.55
298.488
298.426
298.363
298.3
298.236
298.173
298.109
298.044
297.98
297.915
297.85
297.785
297.72
297.654
297.588
297.523
297.456
297.39
297.324
297.257
297.191
297.124
297.057
296.99
296.922
296.855
296.787
296.719
296.651
296.583
296.514
296.446
296.377
296.308
296.239
296.169
296.1
296.03
295.96
295.89
295.82
295.749
295.678
295.608
295.536
295.465
295.393
295.322
295.25
295.178
295.105
295.032
294.96
294.887
294.813
294.74
294.666
294.592
294.518
294.444
294.369
294.294
294.219
294.144
294.068
293.993
293.917
293.841
293.764
293.687
293.611
293.534
293.456
293.379
293.301
293.223
293.145
293.066
292.988
292.909
292.829
292.75
292.67
292.59
292.51
292.43
292.349
292.268
292.187
292.105
292.024
291.942
291.859
291.777
291.694
291.611
291.527
291.444
291.36
291.275
291.191
291.106
291.021
290.935
290.849
290.763
290.677
290.59
290.503
290.415
290.328
290.24
290.151
290.062
289.973
289.884
289.794
289.704
289.613
289.522
289.431
289.339
289.247
289.154
289.061
288.968
288.874
288.781
288.684
288.593
288.492
288.404
288.297
288.214
288.099
288.023
287.9
287.829
287.7
287.632
287.499
287.431
287.296
287.228
287.092
287.023
286.885
286.816
286.676
286.606
286.465
286.393
286.251
286.178
286.034
285.961
285.814
285.74
285.592
285.517
285.366
285.29
285.138
285.06
284.905
284.827
284.67
284.588
284.434
284.342
284.197
284.092
283.953
283.842
283.7
283.592
283.445
283.337
283.189
282.893
282.745
282.447
282.298
281.997
281.846
281.541
281.386
281.074
280.915
280.596
280.435
280.111
279.947
279.617
279.45
279.115
278.945
278.604
278.431
278.083
277.907
277.554
277.375
277.016
276.834
276.468
276.284
275.913
275.725
275.348
275.158
274.776
274.583
274.194
273.998
273.605
273.406
273.008
272.807
272.403
272.199
271.79
271.584
271.171
270.962
270.544
270.333
269.911
269.698
269.272
269.057
268.626
268.41
267.976
267.758
267.321
267.101
266.662
266.441
265.999
265.777
265.333
265.11
264.666
264.441
263.998
263.77
263.331
263.099
262.664
262.43
261.999
261.763
261.337
261.1
260.679
260.443
260.028
259.795
259.386
259.157
258.754
258.533
258.139
257.929
257.543
257.34
256.963
256.764
256.41
256.216
255.886
255.726
255.435
255.297
254.946
255.035
255.169
)
;

boundaryField
{
    sideLeft
    {
        type            symmetryPlane;
    }
    sideRight
    {
        type            zeroGradient;
    }
    topbottom
    {
        type            empty;
    }
    frontback
    {
        type            empty;
    }
}


// ************************************************************************* //
