/*--------------------------------*- C++ -*----------------------------------*\
| =========                 |                                                 |
| \\      /  F ield         | OpenFOAM: The Open Source CFD Toolbox           |
|  \\    /   O peration     | Version:  2.4.0                                 |
|   \\  /    A nd           | Web:      www.OpenFOAM.org                      |
|    \\/     M anipulation  |                                                 |
\*---------------------------------------------------------------------------*/
FoamFile
{
    version     2.0;
    format      ascii;
    class       volVectorField;
    location    "0.1";
    object      U.airMean;
}
// * * * * * * * * * * * * * * * * * * * * * * * * * * * * * * * * * * * * * //

dimensions      [0 1 -1 0 0 0 0];

internalField   nonuniform List<vector> 
1000
(
(-7.49191e-14 0 0)
(-3.83695e-14 0 0)
(-7.45713e-14 0 0)
(-4.20217e-14 0 0)
(-9.50419e-14 0 0)
(-3.87391e-14 0 0)
(-8.51441e-14 0 0)
(-6.16468e-14 0 0)
(-7.26672e-14 0 0)
(-6.10712e-14 0 0)
(-8.11724e-14 0 0)
(-9.62428e-14 0 0)
(-5.89966e-14 0 0)
(-1.11583e-13 0 0)
(-2.58782e-14 0 0)
(-7.75982e-14 0 0)
(-6.59402e-15 0 0)
(-4.51335e-14 0 0)
(8.02642e-16 0 0)
(-7.45995e-14 0 0)
(1.2093e-14 0 0)
(-6.13764e-14 0 0)
(-2.72352e-14 0 0)
(-6.60733e-14 0 0)
(-8.75246e-14 0 0)
(-6.99388e-14 0 0)
(-7.92397e-14 0 0)
(-6.15616e-14 0 0)
(-1.15214e-13 0 0)
(-3.59538e-14 0 0)
(-8.84766e-14 0 0)
(-7.97868e-14 0 0)
(-5.75612e-14 0 0)
(-6.35437e-14 0 0)
(-2.18069e-14 0 0)
(-1.06844e-13 0 0)
(2.43355e-14 0 0)
(-8.03904e-14 0 0)
(-2.03959e-15 0 0)
(-7.50614e-14 0 0)
(-2.21724e-15 0 0)
(-6.20728e-14 0 0)
(-2.877e-14 0 0)
(-5.78451e-14 0 0)
(-1.42749e-14 0 0)
(-4.39826e-14 0 0)
(-4.64553e-14 0 0)
(-5.00293e-14 0 0)
(-6.15401e-14 0 0)
(-5.90889e-14 0 0)
(-9.47577e-14 0 0)
(-5.04985e-14 0 0)
(-8.00424e-14 0 0)
(-2.85924e-14 0 0)
(-7.44221e-14 0 0)
(-4.43451e-14 0 0)
(-6.5434e-14 0 0)
(-5.94653e-14 0 0)
(-8.6949e-14 0 0)
(-6.23645e-14 0 0)
(-9.83602e-14 0 0)
(-2.9438e-14 0 0)
(-6.68407e-14 0 0)
(-7.42232e-14 0 0)
(-5.00649e-14 0 0)
(-4.96029e-14 0 0)
(-1.90213e-14 0 0)
(-2.90186e-14 0 0)
(-5.01215e-14 0 0)
(-2.55727e-14 0 0)
(-5.9458e-14 0 0)
(-4.13609e-14 0 0)
(-8.09092e-14 0 0)
(-4.27393e-14 0 0)
(-5.78524e-14 0 0)
(-8.79508e-14 0 0)
(-5.1401e-14 0 0)
(-9.59443e-14 0 0)
(-8.37446e-14 0 0)
(-5.66445e-14 0 0)
(-5.60974e-14 0 0)
(-3.00205e-14 0 0)
(-2.71e-14 0 0)
(-2.04649e-15 0 0)
(-4.76772e-14 0 0)
(-1.49997e-14 0 0)
(-6.23641e-14 0 0)
(-1.4609e-14 0 0)
(-5.52944e-14 0 0)
(-6.62437e-14 0 0)
(-2.91821e-14 0 0)
(-4.26539e-14 0 0)
(-5.52303e-14 0 0)
(-3.92647e-14 0 0)
(-6.45527e-14 0 0)
(-1.01114e-14 0 0)
(-9.52052e-14 0 0)
(-9.61399e-15 0 0)
(-9.97316e-14 0 0)
(-7.36479e-14 0 0)
(-1.02567e-13 0 0)
(-9.22143e-14 0 0)
(-1.17915e-13 0 0)
(-1.12287e-13 0 0)
(-1.1444e-13 0 0)
(-1.46095e-13 0 0)
(-1.03946e-13 0 0)
(-1.3754e-13 0 0)
(-1.72115e-13 0 0)
(-1.42919e-13 0 0)
(-1.88095e-13 0 0)
(-1.43231e-13 0 0)
(-1.8543e-13 0 0)
(-1.58608e-13 0 0)
(-1.9584e-13 0 0)
(-1.7625e-13 0 0)
(-1.69059e-13 0 0)
(-1.35444e-13 0 0)
(-1.31088e-13 0 0)
(-1.59517e-13 0 0)
(-1.13431e-13 0 0)
(-1.33312e-13 0 0)
(-8.83916e-14 0 0)
(-1.26626e-13 0 0)
(-9.48789e-14 0 0)
(-1.36708e-13 0 0)
(-1.04265e-13 0 0)
(-1.52049e-13 0 0)
(-9.21648e-14 0 0)
(-1.77046e-13 0 0)
(-9.40053e-14 0 0)
(-1.88613e-13 0 0)
(-1.38918e-13 0 0)
(-1.5671e-13 0 0)
(-1.09452e-13 0 0)
(-1.4186e-13 0 0)
(-1.23727e-13 0 0)
(-1.17573e-13 0 0)
(-8.88677e-14 0 0)
(-1.0953e-13 0 0)
(-1.07754e-13 0 0)
(-9.75506e-14 0 0)
(-1.47629e-13 0 0)
(-9.64209e-14 0 0)
(-1.54713e-13 0 0)
(-9.47653e-14 0 0)
(-1.24331e-13 0 0)
(-1.29489e-13 0 0)
(-1.13261e-13 0 0)
(-1.30278e-13 0 0)
(-1.29297e-13 0 0)
(-1.46045e-13 0 0)
(-1.39679e-13 0 0)
(-1.46912e-13 0 0)
(-1.25844e-13 0 0)
(-1.27379e-13 0 0)
(-1.34193e-13 0 0)
(-1.30939e-13 0 0)
(-1.42187e-13 0 0)
(-1.15186e-13 0 0)
(-1.59033e-13 0 0)
(-8.66509e-14 0 0)
(-1.31322e-13 0 0)
(-8.24871e-14 0 0)
(-1.24331e-13 0 0)
(-7.43087e-14 0 0)
(-1.41341e-13 0 0)
(-8.46543e-14 0 0)
(-1.49704e-13 0 0)
(-1.38655e-13 0 0)
(-1.43309e-13 0 0)
(-1.27443e-13 0 0)
(-1.66629e-13 0 0)
(-1.3624e-13 0 0)
(-1.85679e-13 0 0)
(-1.41064e-13 0 0)
(-1.9773e-13 0 0)
(-1.59361e-13 0 0)
(-2.16765e-13 0 0)
(-2.10449e-13 0 0)
(-1.8953e-13 0 0)
(-1.80805e-13 0 0)
(-1.56597e-13 0 0)
(-2.16346e-13 0 0)
(-1.36943e-13 0 0)
(-2.02426e-13 0 0)
(-1.33739e-13 0 0)
(-2.31544e-13 0 0)
(-9.51848e-14 0 0)
(-1.91512e-13 0 0)
(-8.48746e-14 0 0)
(-1.72583e-13 0 0)
(-8.90099e-14 0 0)
(-1.47835e-13 0 0)
(-1.21844e-13 0 0)
(-1.35799e-13 0 0)
(-1.22974e-13 0 0)
(-1.12884e-13 0 0)
(-1.02879e-13 0 0)
(-1.17993e-13 0 0)
(-8.49456e-14 0 0)
(-1.43799e-13 0 0)
(-6.16185e-14 0 0)
(-1.0246e-13 0 0)
(-7.9254e-14 0 0)
(-7.3129e-14 0 0)
(-4.26754e-14 0 0)
(-5.39514e-14 0 0)
(-6.12558e-14 0 0)
(-2.65317e-14 0 0)
(-1.93481e-14 0 0)
(1.18653e-15 0 0)
(-2.07051e-14 0 0)
(3.71257e-14 0 0)
(-7.08742e-17 0 0)
(6.08578e-14 0 0)
(2.79102e-14 0 0)
(3.73674e-14 0 0)
(4.21921e-14 0 0)
(5.7362e-14 0 0)
(5.56639e-14 0 0)
(4.37482e-14 0 0)
(5.95079e-14 0 0)
(4.05364e-14 0 0)
(7.96541e-15 0 0)
(3.18535e-14 0 0)
(3.44186e-14 0 0)
(-1.66904e-14 0 0)
(3.13631e-14 0 0)
(-1.5774e-14 0 0)
(-2.18776e-14 0 0)
(-3.47313e-14 0 0)
(-4.30516e-14 0 0)
(-4.82477e-15 0 0)
(-5.58271e-14 0 0)
(1.86018e-14 0 0)
(-4.89917e-14 0 0)
(1.47064e-15 0 0)
(-5.98134e-14 0 0)
(-4.81463e-14 0 0)
(-3.25216e-14 0 0)
(-1.59021e-14 0 0)
(-7.04499e-14 0 0)
(2.64034e-14 0 0)
(-2.47622e-14 0 0)
(-1.76943e-15 0 0)
(-2.97289e-14 0 0)
(8.1072e-15 0 0)
(-4.72501e-15 0 0)
(3.16759e-14 0 0)
(2.78037e-14 0 0)
(4.92262e-14 0 0)
(3.76446e-14 0 0)
(-9.59924e-15 0 0)
(4.00673e-14 0 0)
(-1.64417e-14 0 0)
(4.96951e-14 0 0)
(1.56337e-15 0 0)
(4.39823e-14 0 0)
(-1.83387e-14 0 0)
(5.45622e-14 0 0)
(1.07863e-14 0 0)
(4.33145e-14 0 0)
(2.7434e-14 0 0)
(7.43239e-15 0 0)
(3.25427e-14 0 0)
(-3.30399e-14 0 0)
(7.21055e-14 0 0)
(8.16435e-15 0 0)
(7.09333e-14 0 0)
(1.576e-14 0 0)
(7.14094e-14 0 0)
(1.92629e-14 0 0)
(5.3511e-14 0 0)
(2.43788e-14 0 0)
(7.15657e-14 0 0)
(2.13308e-14 0 0)
(1.02367e-13 0 0)
(4.77985e-14 0 0)
(1.0116e-13 0 0)
(9.41328e-14 0 0)
(1.20522e-13 0 0)
(1.3015e-13 0 0)
(6.45888e-14 0 0)
(1.55246e-13 0 0)
(1.10973e-13 0 0)
(1.21915e-13 0 0)
(1.27749e-13 0 0)
(1.30917e-13 0 0)
(1.04791e-13 0 0)
(1.23578e-13 0 0)
(1.12465e-13 0 0)
(1.30377e-13 0 0)
(8.17766e-14 0 0)
(1.50699e-13 0 0)
(1.018e-13 0 0)
(1.23031e-13 0 0)
(1.46457e-13 0 0)
(1.6793e-13 0 0)
(1.2205e-13 0 0)
(1.83959e-13 0 0)
(1.58195e-13 0 0)
(1.60625e-13 0 0)
(1.83519e-13 0 0)
(1.31287e-13 0 0)
(1.9746e-13 0 0)
(1.54444e-13 0 0)
(1.56511e-13 0 0)
(1.47018e-13 0 0)
(1.2809e-13 0 0)
(1.45569e-13 0 0)
(1.17382e-13 0 0)
(1.44887e-13 0 0)
(1.18142e-13 0 0)
(1.58778e-13 0 0)
(1.39309e-13 0 0)
(1.61812e-13 0 0)
(1.34236e-13 0 0)
(1.24345e-13 0 0)
(1.65251e-13 0 0)
(1.38947e-13 0 0)
(1.26782e-13 0 0)
(1.55204e-13 0 0)
(1.16003e-13 0 0)
(1.68349e-13 0 0)
(1.13815e-13 0 0)
(1.04414e-13 0 0)
(1.14411e-13 0 0)
(1.02226e-13 0 0)
(1.00684e-13 0 0)
(1.28672e-13 0 0)
(1.38101e-13 0 0)
(9.91281e-14 0 0)
(1.53143e-13 0 0)
(9.69254e-14 0 0)
(1.47274e-13 0 0)
(9.09993e-14 0 0)
(8.41639e-14 0 0)
(9.62288e-14 0 0)
(9.46301e-14 0 0)
(1.10496e-13 0 0)
(8.32898e-14 0 0)
(9.34647e-14 0 0)
(4.12117e-14 0 0)
(8.16126e-14 0 0)
(-5.41396e-15 0 0)
(6.51635e-14 0 0)
(-5.64132e-15 0 0)
(8.7607e-15 0 0)
(-2.26662e-14 0 0)
(-5.82651e-15 0 0)
(-1.37419e-14 0 0)
(-5.4641e-15 0 0)
(-3.41485e-14 0 0)
(2.0229e-14 0 0)
(2.65023e-15 0 0)
(-2.70714e-14 0 0)
(6.51547e-15 0 0)
(6.70055e-15 0 0)
(2.09894e-14 0 0)
(5.81932e-15 0 0)
(-1.07577e-14 0 0)
(-3.2628e-14 0 0)
(-7.87277e-15 0 0)
(-3.31123e-15 0 0)
(1.21928e-14 0 0)
(-4.48421e-14 0 0)
(1.95379e-15 0 0)
(-3.92644e-14 0 0)
(-1.19229e-14 0 0)
(-1.86304e-14 0 0)
(6.52972e-15 0 0)
(-2.64888e-14 0 0)
(1.46086e-14 0 0)
(-1.13755e-14 0 0)
(4.11615e-14 0 0)
(2.0279e-14 0 0)
(6.40552e-14 0 0)
(1.26504e-15 0 0)
(7.97581e-14 0 0)
(1.90571e-14 0 0)
(6.9029e-14 0 0)
(3.20456e-14 0 0)
(2.55796e-14 0 0)
(3.02973e-14 0 0)
(-5.06185e-14 0 0)
(5.64024e-14 0 0)
(-2.99561e-14 0 0)
(3.45107e-14 0 0)
(-3.77651e-14 0 0)
(1.06459e-16 0 0)
(-1.02602e-14 0 0)
(2.74907e-14 0 0)
(-3.2372e-14 0 0)
(4.51334e-14 0 0)
(-1.69533e-14 0 0)
(3.20951e-14 0 0)
(1.08786e-14 0 0)
(8.02627e-14 0 0)
(5.26228e-14 0 0)
(7.92041e-14 0 0)
(7.72786e-14 0 0)
(4.62921e-14 0 0)
(1.05295e-13 0 0)
(7.59074e-14 0 0)
(8.15632e-14 0 0)
(8.93222e-14 0 0)
(9.61577e-14 0 0)
(4.93473e-14 0 0)
(9.51558e-14 0 0)
(5.53585e-14 0 0)
(1.05487e-13 0 0)
(6.30111e-14 0 0)
(8.49808e-14 0 0)
(5.89608e-14 0 0)
(8.07888e-14 0 0)
(5.57065e-14 0 0)
(9.6996e-14 0 0)
(-2.31585e-15 0 0)
(1.3297e-13 0 0)
(4.75853e-14 0 0)
(8.85406e-14 0 0)
(6.68979e-14 0 0)
(1.08755e-13 0 0)
(8.3432e-14 0 0)
(6.91075e-14 0 0)
(9.517e-14 0 0)
(4.92478e-14 0 0)
(7.54808e-14 0 0)
(4.55318e-14 0 0)
(9.4708e-14 0 0)
(7.67601e-14 0 0)
(7.75132e-14 0 0)
(1.2205e-13 0 0)
(1.31465e-13 0 0)
(1.01707e-13 0 0)
(1.12926e-13 0 0)
(4.71448e-14 0 0)
(9.80191e-14 0 0)
(1.59449e-14 0 0)
(9.89001e-14 0 0)
(3.40566e-14 0 0)
(7.44009e-14 0 0)
(6.44675e-14 0 0)
(6.28191e-14 0 0)
(8.50803e-14 0 0)
(5.45059e-14 0 0)
(9.77492e-14 0 0)
(6.17249e-14 0 0)
(6.85176e-14 0 0)
(5.7149e-14 0 0)
(3.72823e-14 0 0)
(9.01393e-14 0 0)
(7.45927e-14 0 0)
(5.93731e-14 0 0)
(8.06607e-14 0 0)
(7.16796e-14 0 0)
(3.39428e-14 0 0)
(7.68521e-14 0 0)
(-5.59869e-15 0 0)
(9.95324e-14 0 0)
(2.8141e-15 0 0)
(7.51254e-14 0 0)
(-1.40472e-14 0 0)
(4.0792e-14 0 0)
(-3.04679e-14 0 0)
(5.26502e-15 0 0)
(-2.47622e-14 0 0)
(1.69391e-14 0 0)
(-9.59221e-15 0 0)
(-1.657e-14 0 0)
(-7.23315e-15 0 0)
(1.39762e-14 0 0)
(8.00776e-15 0 0)
(-1.64347e-14 0 0)
(-1.49073e-14 0 0)
(-3.62801e-14 0 0)
(3.79402e-15 0 0)
(-6.57178e-14 0 0)
(1.09067e-14 0 0)
(-1.67119e-14 0 0)
(1.06153e-14 0 0)
(-4.0792e-14 0 0)
(2.53732e-14 0 0)
(-1.50137e-14 0 0)
(-1.6044e-14 0 0)
(-3.04539e-14 0 0)
(-3.07097e-14 0 0)
(-7.24326e-14 0 0)
(-9.71325e-15 0 0)
(-4.33645e-14 0 0)
(-5.24878e-14 0 0)
(-3.80496e-14 0 0)
(-4.46647e-14 0 0)
(-3.40492e-14 0 0)
(-9.1448e-15 0 0)
(-1.51772e-14 0 0)
(-4.28385e-14 0 0)
(-9.80549e-15 0 0)
(-3.57332e-14 0 0)
(7.88589e-16 0 0)
(-2.32703e-14 0 0)
(-4.56168e-14 0 0)
(-2.88694e-14 0 0)
(-5.78238e-14 0 0)
(-2.21976e-14 0 0)
(-7.90902e-14 0 0)
(-2.18424e-14 0 0)
(-1.03206e-13 0 0)
(1.8684e-15 0 0)
(-7.91968e-14 0 0)
(-2.25598e-14 0 0)
(-4.63416e-14 0 0)
(-3.14913e-14 0 0)
(-3.36796e-14 0 0)
(-1.96123e-15 0 0)
(-1.48218e-14 0 0)
(2.09254e-14 0 0)
(3.75308e-14 0 0)
(7.07714e-15 0 0)
(4.7457e-14 0 0)
(-1.87368e-14 0 0)
(6.87235e-14 0 0)
(5.02369e-15 0 0)
(7.25179e-14 0 0)
(3.19461e-14 0 0)
(6.05807e-14 0 0)
(3.91156e-14 0 0)
(8.71407e-14 0 0)
(2.94736e-14 0 0)
(5.05691e-14 0 0)
(2.93029e-14 0 0)
(3.24575e-14 0 0)
(2.80382e-14 0 0)
(5.97067e-14 0 0)
(4.9802e-14 0 0)
(5.83283e-14 0 0)
(5.0214e-14 0 0)
(1.92558e-14 0 0)
(3.80281e-14 0 0)
(1.65416e-14 0 0)
(1.31947e-14 0 0)
(9.4504e-15 0 0)
(1.97245e-14 0 0)
(2.31709e-14 0 0)
(-6.57955e-15 0 0)
(4.62135e-14 0 0)
(-2.29497e-15 0 0)
(1.43814e-14 0 0)
(-3.9075e-16 0 0)
(2.76542e-14 0 0)
(1.46381e-15 0 0)
(2.2716e-14 0 0)
(1.0303e-14 0 0)
(3.66639e-14 0 0)
(3.4973e-14 0 0)
(2.13163e-14 0 0)
(4.57022e-14 0 0)
(5.11021e-14 0 0)
(5.8506e-14 0 0)
(3.39996e-14 0 0)
(7.69303e-14 0 0)
(4.24338e-14 0 0)
(6.7203e-14 0 0)
(4.35633e-14 0 0)
(-3.17584e-15 0 0)
(8.52364e-14 0 0)
(3.26141e-14 0 0)
(6.79491e-14 0 0)
(4.18227e-14 0 0)
(9.62854e-14 0 0)
(4.70381e-14 0 0)
(4.64765e-14 0 0)
(1.88011e-14 0 0)
(4.33785e-14 0 0)
(1.85452e-14 0 0)
(3.48876e-14 0 0)
(3.61879e-14 0 0)
(-1.73512e-14 0 0)
(2.78318e-14 0 0)
(-1.66195e-14 0 0)
(3.1747e-14 0 0)
(-1.23775e-14 0 0)
(2.44141e-14 0 0)
(-4.43092e-14 0 0)
(1.28464e-14 0 0)
(-4.41173e-14 0 0)
(1.58093e-14 0 0)
(-4.96241e-14 0 0)
(-1.06158e-14 0 0)
(-7.67525e-14 0 0)
(8.77488e-15 0 0)
(-6.41618e-14 0 0)
(-3.33265e-15 0 0)
(-6.37995e-14 0 0)
(-2.45351e-14 0 0)
(-2.55225e-14 0 0)
(1.00185e-14 0 0)
(-1.35074e-14 0 0)
(-4.40251e-14 0 0)
(1.13045e-14 0 0)
(-3.0532e-14 0 0)
(-3.7609e-14 0 0)
(-4.26894e-14 0 0)
(-4.4409e-14 0 0)
(-8.63733e-14 0 0)
(-5.05482e-14 0 0)
(-9.25623e-14 0 0)
(-8.40928e-14 0 0)
(-8.02131e-14 0 0)
(-6.03323e-14 0 0)
(-6.38422e-14 0 0)
(-6.25845e-14 0 0)
(-3.1264e-14 0 0)
(-2.5679e-14 0 0)
(1.34219e-14 0 0)
(-2.77675e-14 0 0)
(1.08379e-13 0 0)
(1.06255e-13 0 0)
(2.12246e-13 0 0)
(3.57368e-13 0 0)
(6.21881e-13 0 0)
(1.05533e-12 0 0)
(1.74732e-12 0 0)
(2.81059e-12 0 0)
(4.63524e-12 0 0)
(7.45612e-12 0 0)
(1.20795e-11 0 0)
(1.93789e-11 0 0)
(3.109e-11 0 0)
(4.95483e-11 0 0)
(7.86959e-11 0 0)
(1.24428e-10 0 0)
(1.95893e-10 0 0)
(3.07242e-10 0 0)
(4.79679e-10 0 0)
(7.46029e-10 0 0)
(1.15496e-09 0 0)
(1.7806e-09 0 0)
(2.73314e-09 0 0)
(4.17717e-09 0 0)
(6.3561e-09 0 0)
(9.62923e-09 0 0)
(1.45232e-08 0 0)
(2.18071e-08 0 0)
(3.25974e-08 0 0)
(4.85071e-08 0 0)
(7.18542e-08 0 0)
(1.05953e-07 0 0)
(1.55515e-07 0 0)
(2.27205e-07 0 0)
(3.30399e-07 0 0)
(4.78213e-07 0 0)
(6.88895e-07 0 0)
(9.8769e-07 0 0)
(1.40933e-06 0 0)
(2.00131e-06 0 0)
(2.82822e-06 0 0)
(3.97738e-06 0 0)
(5.56615e-06 0 0)
(7.75125e-06 0 0)
(1.07408e-05 0 0)
(1.48094e-05 0 0)
(2.0317e-05 0 0)
(2.77328e-05 0 0)
(3.7664e-05 0 0)
(5.08919e-05 0 0)
(6.84144e-05 0 0)
(9.14982e-05 0 0)
(0.00012174 0 0)
(0.00016114 0 0)
(0.000212182 0 0)
(0.000277935 0 0)
(0.000362159 0 0)
(0.000469431 0 0)
(0.000605275 0 0)
(0.000776319 0 0)
(0.000990444 0 0)
(0.00125696 0 0)
(0.00158676 0 0)
(0.00199254 0 0)
(0.0024889 0 0)
(0.00309258 0 0)
(0.00382257 0 0)
(0.00470025 0 0)
(0.0057495 0 0)
(0.00699678 0 0)
(0.00847118 0 0)
(0.0102044 0 0)
(0.0122307 0 0)
(0.0145869 0 0)
(0.0173121 0 0)
(0.0204476 0 0)
(0.0240367 0 0)
(0.0281244 0 0)
(0.0327571 0 0)
(0.0379822 0 0)
(0.0438482 0 0)
(0.0504036 0 0)
(0.0576973 0 0)
(0.0657777 0 0)
(0.0746927 0 0)
(0.0844893 0 0)
(0.0952133 0 0)
(0.106909 0 0)
(0.119619 0 0)
(0.133384 0 0)
(0.148243 0 0)
(0.164232 0 0)
(0.181385 0 0)
(0.199735 0 0)
(0.219311 0 0)
(0.240141 0 0)
(0.26225 0 0)
(0.28566 0 0)
(0.310393 0 0)
(0.336467 0 0)
(0.363899 0 0)
(0.392705 0 0)
(0.422898 0 0)
(0.454489 0 0)
(0.48749 0 0)
(0.52191 0 0)
(0.557757 0 0)
(0.595039 0 0)
(0.633761 0 0)
(0.67393 0 0)
(0.71555 0 0)
(0.758626 0 0)
(0.803162 0 0)
(0.849162 0 0)
(0.896628 0 0)
(0.945564 0 0)
(0.995972 0 0)
(1.04785 0 0)
(1.10122 0 0)
(1.15606 0 0)
(1.21238 0 0)
(1.27019 0 0)
(1.32948 0 0)
(1.39027 0 0)
(1.45254 0 0)
(1.51631 0 0)
(1.58158 0 0)
(1.64835 0 0)
(1.71662 0 0)
(1.78639 0 0)
(1.85768 0 0)
(1.93047 0 0)
(2.00477 0 0)
(2.0806 0 0)
(2.15794 0 0)
(2.2368 0 0)
(2.31719 0 0)
(2.39912 0 0)
(2.48257 0 0)
(2.56756 0 0)
(2.65409 0 0)
(2.74217 0 0)
(2.8318 0 0)
(2.92297 0 0)
(3.01571 0 0)
(3.11 0 0)
(3.20586 0 0)
(3.30329 0 0)
(3.40229 0 0)
(3.50287 0 0)
(3.60503 0 0)
(3.70878 0 0)
(3.81412 0 0)
(3.92106 0 0)
(4.0296 0 0)
(4.13975 0 0)
(4.25151 0 0)
(4.36489 0 0)
(4.47989 0 0)
(4.59652 0 0)
(4.71478 0 0)
(4.83468 0 0)
(4.95623 0 0)
(5.07942 0 0)
(5.20427 0 0)
(5.33078 0 0)
(5.45896 0 0)
(5.58881 0 0)
(5.72034 0 0)
(5.85355 0 0)
(5.98845 0 0)
(6.12505 0 0)
(6.26336 0 0)
(6.40337 0 0)
(6.5451 0 0)
(6.68854 0 0)
(6.83372 0 0)
(6.98063 0 0)
(7.12928 0 0)
(7.27968 0 0)
(7.43184 0 0)
(7.58575 0 0)
(7.74143 0 0)
(7.89889 0 0)
(8.05813 0 0)
(8.21916 0 0)
(8.38198 0 0)
(8.54661 0 0)
(8.71306 0 0)
(8.88132 0 0)
(9.0514 0 0)
(9.22333 0 0)
(9.39709 0 0)
(9.57271 0 0)
(9.75019 0 0)
(9.92953 0 0)
(10.1108 0 0)
(10.2939 0 0)
(10.4789 0 0)
(10.6658 0 0)
(10.8546 0 0)
(11.0453 0 0)
(11.238 0 0)
(11.4326 0 0)
(11.6292 0 0)
(11.8277 0 0)
(12.0282 0 0)
(12.2306 0 0)
(12.4351 0 0)
(12.6416 0 0)
(12.85 0 0)
(13.0605 0 0)
(13.2731 0 0)
(13.4876 0 0)
(13.7043 0 0)
(13.923 0 0)
(14.1438 0 0)
(14.3666 0 0)
(14.5916 0 0)
(14.8187 0 0)
(15.0479 0 0)
(15.2793 0 0)
(15.5128 0 0)
(15.7485 0 0)
(15.9863 0 0)
(16.2264 0 0)
(16.4687 0 0)
(16.7131 0 0)
(16.9599 0 0)
(17.2088 0 0)
(17.4601 0 0)
(17.7136 0 0)
(17.9694 0 0)
(18.2276 0 0)
(18.488 0 0)
(18.7509 0 0)
(19.0159 0 0)
(19.2836 0 0)
(19.5533 0 0)
(19.826 0 0)
(20.1004 0 0)
(20.3781 0 0)
(20.6572 0 0)
(20.94 0 0)
(21.224 0 0)
(21.512 0 0)
(21.8009 0 0)
(22.0942 0 0)
(22.3881 0 0)
(22.6867 0 0)
(22.9857 0 0)
(23.2898 0 0)
(23.5939 0 0)
(23.9036 0 0)
(24.213 0 0)
(24.5283 0 0)
(24.8431 0 0)
(25.1641 0 0)
(25.4844 0 0)
(25.8112 0 0)
(26.1371 0 0)
(26.4698 0 0)
(26.8015 0 0)
(27.1402 0 0)
(27.4779 0 0)
(27.8226 0 0)
(28.1664 0 0)
(28.5172 0 0)
(28.8675 0 0)
(29.2242 0 0)
(29.5814 0 0)
(29.9439 0 0)
(30.3085 0 0)
(30.6766 0 0)
(31.0491 0 0)
(31.4223 0 0)
(31.8036 0 0)
(32.1813 0 0)
(32.5717 0 0)
(32.9536 0 0)
(33.3529 0 0)
(33.738 0 0)
(34.1444 0 0)
(34.5301 0 0)
(34.9434 0 0)
(35.3237 0 0)
(35.7374 0 0)
(36.1159 0 0)
(36.5353 0 0)
(36.917 0 0)
(37.3456 0 0)
(37.732 0 0)
(38.1703 0 0)
(38.5605 0 0)
(39.0077 0 0)
(39.401 0 0)
(39.8565 0 0)
(40.2527 0 0)
(40.7165 0 0)
(41.1159 0 0)
(41.5881 0 0)
(41.9908 0 0)
(42.4717 0 0)
(42.8776 0 0)
(43.3672 0 0)
(43.7762 0 0)
(44.2745 0 0)
(44.6866 0 0)
(45.1936 0 0)
(45.6088 0 0)
(46.1245 0 0)
(46.5428 0 0)
(47.0673 0 0)
(47.4886 0 0)
(48.0219 0 0)
(48.4463 0 0)
(48.9884 0 0)
(49.4157 0 0)
(49.9667 0 0)
(50.397 0 0)
(50.9568 0 0)
(51.3901 0 0)
(51.9587 0 0)
(52.3951 0 0)
(52.9722 0 0)
(53.4118 0 0)
(53.9974 0 0)
(54.4401 0 0)
(55.0343 0 0)
(55.4801 0 0)
(56.0826 0 0)
(56.5317 0 0)
(57.1424 0 0)
(57.5946 0 0)
(58.2134 0 0)
(58.6688 0 0)
(59.2956 0 0)
(59.754 0 0)
(60.3887 0 0)
(60.8501 0 0)
(61.4925 0 0)
(61.9568 0 0)
(62.6068 0 0)
(63.0739 0 0)
(63.7311 0 0)
(64.2009 0 0)
(64.8653 0 0)
(65.3374 0 0)
(66.0087 0 0)
(66.483 0 0)
(67.161 0 0)
(67.6371 0 0)
(68.3215 0 0)
(68.7992 0 0)
(69.4895 0 0)
(69.9684 0 0)
(70.6644 0 0)
(71.144 0 0)
(71.8453 0 0)
(72.3249 0 0)
(73.031 0 0)
(73.51 0 0)
(74.2204 0 0)
(74.698 0 0)
(75.412 0 0)
(75.8873 0 0)
(76.6042 0 0)
(77.0759 0 0)
(77.795 0 0)
(78.2616 0 0)
(78.9821 0 0)
(79.4421 0 0)
(80.1634 0 0)
(80.6155 0 0)
(81.3369 0 0)
(81.7797 0 0)
(82.5004 0 0)
(82.9314 0 0)
(83.6501 0 0)
(84.0651 0 0)
(84.7822 0 0)
(85.1815 0 0)
(86.6711 0 0)
)
;

boundaryField
{
    sideLeft
    {
        type            symmetryPlane;
    }
    sideRight
    {
        type            calculated;
        value           uniform (86.2967 0 0);
    }
    topbottom
    {
        type            empty;
    }
    frontback
    {
        type            empty;
    }
}


// ************************************************************************* //
