/*--------------------------------*- C++ -*----------------------------------*\
| =========                 |                                                 |
| \\      /  F ield         | OpenFOAM: The Open Source CFD Toolbox           |
|  \\    /   O peration     | Version:  2.4.0                                 |
|   \\  /    A nd           | Web:      www.OpenFOAM.org                      |
|    \\/     M anipulation  |                                                 |
\*---------------------------------------------------------------------------*/
FoamFile
{
    version     2.0;
    format      ascii;
    class       volVectorField;
    location    "0.1";
    object      U.air;
}
// * * * * * * * * * * * * * * * * * * * * * * * * * * * * * * * * * * * * * //

dimensions      [0 1 -1 0 0 0 0];

internalField   nonuniform List<vector> 
1000
(
(-2.48689e-13 0 0)
(-3.41061e-13 0 0)
(-3.33955e-13 0 0)
(-3.12639e-13 0 0)
(-5.61328e-13 0 0)
(-8.38441e-13 0 0)
(-7.31859e-13 0 0)
(-6.6791e-13 0 0)
(-6.46594e-13 0 0)
(-6.18172e-13 0 0)
(-5.18696e-13 0 0)
(-3.4106e-13 0 0)
(-2.20269e-13 0 0)
(-1.42102e-14 0 0)
(-2.84224e-14 0 0)
(-2.34478e-13 0 0)
(-2.84218e-13 0 0)
(-2.41584e-13 0 0)
(-3.55277e-14 0 0)
(-1.8474e-13 0 0)
(1.13686e-13 0 0)
(3.62377e-13 0 0)
(8.45546e-13 0 0)
(9.9476e-13 0 0)
(7.88703e-13 0 0)
(7.88702e-13 0 0)
(9.73444e-13 0 0)
(9.30811e-13 0 0)
(8.38441e-13 0 0)
(1.01608e-12 0 0)
(8.95284e-13 0 0)
(7.4607e-13 0 0)
(7.4607e-13 0 0)
(7.24754e-13 0 0)
(9.45021e-13 0 0)
(1.20792e-12 0 0)
(1.20082e-12 0 0)
(7.88703e-13 0 0)
(8.17123e-13 0 0)
(5.61329e-13 0 0)
(4.83168e-13 0 0)
(6.67911e-13 0 0)
(5.82645e-13 0 0)
(9.94764e-14 0 0)
(-7.10547e-14 0 0)
(-2.55795e-13 0 0)
(-3.12639e-13 0 0)
(-7.10543e-14 0 0)
(-7.10534e-15 0 0)
(-1.84741e-13 0 0)
(-3.33955e-13 0 0)
(-2.4869e-13 0 0)
(-1.77635e-13 0 0)
(6.39484e-14 0 0)
(-6.39484e-14 0 0)
(-9.94763e-14 0 0)
(4.26326e-14 0 0)
(1.77636e-13 0 0)
(3.48166e-13 0 0)
(6.25277e-13 0 0)
(4.26326e-13 0 0)
(4.1922e-13 0 0)
(3.33955e-13 0 0)
(1.42109e-13 0 0)
(9.94759e-14 0 0)
(-9.23704e-14 0 0)
(-3.55274e-14 0 0)
(-2.06057e-13 0 0)
(-1.06581e-13 0 0)
(-4.26329e-14 0 0)
(4.26328e-14 0 0)
(2.55795e-13 0 0)
(3.41061e-13 0 0)
(5.47118e-13 0 0)
(4.61853e-13 0 0)
(2.41585e-13 0 0)
(4.26321e-14 0 0)
(1.20793e-13 0 0)
(1.98952e-13 0 0)
(2.34479e-13 0 0)
(1.7053e-13 0 0)
(-4.97381e-14 0 0)
(-2.06057e-13 0 0)
(-3.55275e-14 0 0)
(7.10547e-14 0 0)
(3.26849e-13 0 0)
(5.25802e-13 0 0)
(4.47641e-13 0 0)
(1.27898e-13 0 0)
(2.06058e-13 0 0)
(2.06057e-13 0 0)
(-7.81597e-14 0 0)
(-2.55795e-13 0 0)
(-3.97904e-13 0 0)
(-3.97904e-13 0 0)
(-5.6133e-13 0 0)
(-7.53174e-13 0 0)
(-4.68959e-13 0 0)
(-2.55795e-13 0 0)
(6.39487e-14 0 0)
(-5.68432e-14 0 0)
(4.26324e-14 0 0)
(-1.56319e-13 0 0)
(-2.27374e-13 0 0)
(8.5265e-14 0 0)
(-7.81593e-14 0 0)
(-2.13163e-13 0 0)
(-8.52652e-14 0 0)
(-3.55271e-13 0 0)
(-6.46594e-13 0 0)
(-3.33955e-13 0 0)
(-7.10588e-15 0 0)
(-7.10512e-15 0 0)
(-2.55796e-13 0 0)
(-4.90274e-13 0 0)
(-3.76588e-13 0 0)
(-3.05533e-13 0 0)
(-2.91323e-13 0 0)
(-4.26327e-14 0 0)
(1.77636e-13 0 0)
(3.55268e-14 0 0)
(1.42111e-14 0 0)
(9.23701e-14 0 0)
(1.63425e-13 0 0)
(3.05533e-13 0 0)
(2.77112e-13 0 0)
(5.82645e-13 0 0)
(4.90275e-13 0 0)
(3.76587e-13 0 0)
(2.55796e-13 0 0)
(4.47641e-13 0 0)
(3.55272e-13 0 0)
(4.83169e-13 0 0)
(3.2685e-13 0 0)
(1.84741e-13 0 0)
(3.69483e-13 0 0)
(3.41061e-13 0 0)
(4.76064e-13 0 0)
(3.97904e-13 0 0)
(3.62377e-13 0 0)
(6.39489e-14 0 0)
(-9.94763e-14 0 0)
(-2.13157e-14 0 0)
(-2.55796e-13 0 0)
(-3.19744e-13 0 0)
(-2.84222e-14 0 0)
(4.26326e-14 0 0)
(-4.97379e-14 0 0)
(1.20792e-13 0 0)
(-9.94759e-14 0 0)
(-2.34479e-13 0 0)
(-1.35003e-13 0 0)
(-8.52652e-14 0 0)
(-1.98952e-13 0 0)
(-4.9738e-13 0 0)
(-6.39489e-13 0 0)
(-8.81073e-13 0 0)
(-6.82121e-13 0 0)
(-8.45546e-13 0 0)
(-9.0239e-13 0 0)
(-1.0516e-12 0 0)
(-1.00187e-12 0 0)
(-7.74491e-13 0 0)
(-4.12115e-13 0 0)
(-4.40536e-13 0 0)
(-5.54224e-13 0 0)
(-7.10542e-13 0 0)
(-5.04486e-13 0 0)
(-4.83169e-13 0 0)
(-5.40013e-13 0 0)
(-4.54747e-13 0 0)
(-2.84217e-13 0 0)
(-4.12114e-13 0 0)
(-2.70007e-13 0 0)
(-1.77635e-13 0 0)
(-2.27374e-13 0 0)
(-3.19744e-13 0 0)
(-4.40537e-13 0 0)
(-4.68958e-13 0 0)
(-3.83693e-13 0 0)
(-5.32907e-13 0 0)
(-5.32907e-13 0 0)
(-7.53176e-13 0 0)
(-1.22924e-12 0 0)
(-1.1795e-12 0 0)
(-1.22213e-12 0 0)
(-9.94761e-13 0 0)
(-8.73966e-13 0 0)
(-4.47643e-13 0 0)
(-4.76063e-13 0 0)
(-1.49215e-13 0 0)
(-4.19219e-13 0 0)
(-2.77112e-13 0 0)
(-4.26322e-14 0 0)
(1.56319e-13 0 0)
(2.13165e-14 0 0)
(-1.06581e-13 0 0)
(1.7053e-13 0 0)
(3.33955e-13 0 0)
(1.91847e-13 0 0)
(-7.10588e-15 0 0)
(-1.8474e-13 0 0)
(1.49213e-13 0 0)
(7.816e-14 0 0)
(-9.23706e-14 0 0)
(-2.62901e-13 0 0)
(-1.7053e-13 0 0)
(-2.20268e-13 0 0)
(-2.27373e-13 0 0)
(-3.19744e-13 0 0)
(-4.26326e-13 0 0)
(-4.61853e-13 0 0)
(-7.17648e-13 0 0)
(-6.32383e-13 0 0)
(-8.59756e-13 0 0)
(-8.10019e-13 0 0)
(-7.95808e-13 0 0)
(-7.95808e-13 0 0)
(-5.04485e-13 0 0)
(-3.41061e-13 0 0)
(-1.77636e-13 0 0)
(-4.97378e-14 0 0)
(2.34479e-13 0 0)
(1.42107e-14 0 0)
(-2.41584e-13 0 0)
(-1.06582e-13 0 0)
(-1.98952e-13 0 0)
(-9.237e-14 0 0)
(-4.97384e-14 0 0)
(1.42111e-14 0 0)
(-2.13163e-14 0 0)
(-1.06581e-13 0 0)
(-2.77111e-13 0 0)
(-2.13163e-13 0 0)
(-3.48165e-13 0 0)
(-5.7554e-13 0 0)
(-8.95283e-13 0 0)
(-6.25278e-13 0 0)
(-5.82645e-13 0 0)
(-6.18172e-13 0 0)
(-3.97904e-13 0 0)
(-1.91847e-13 0 0)
(7.38656e-19 0 0)
(-1.98953e-13 0 0)
(-1.49214e-13 0 0)
(-1.5632e-13 0 0)
(-2.27373e-13 0 0)
(6.39486e-14 0 0)
(-1.20792e-13 0 0)
(-2.4869e-13 0 0)
(2.84218e-14 0 0)
(2.4869e-13 0 0)
(5.68433e-14 0 0)
(6.39493e-14 0 0)
(1.27897e-13 0 0)
(-4.26319e-14 0 0)
(-7.81602e-14 0 0)
(-2.70006e-13 0 0)
(-2.62901e-13 0 0)
(-1.42108e-13 0 0)
(5.25801e-13 0 0)
(4.26326e-13 0 0)
(3.97904e-13 0 0)
(4.40536e-13 0 0)
(3.48166e-13 0 0)
(1.27897e-13 0 0)
(-1.13686e-13 0 0)
(-7.10551e-14 0 0)
(-1.49213e-13 0 0)
(1.91846e-13 0 0)
(-2.48689e-13 0 0)
(-9.94765e-14 0 0)
(-3.55271e-13 0 0)
(-2.91323e-13 0 0)
(-2.27373e-13 0 0)
(-2.3448e-13 0 0)
(-2.55795e-13 0 0)
(1.42102e-14 0 0)
(-1.27897e-13 0 0)
(-5.68437e-14 0 0)
(1.4211e-14 0 0)
(-3.41061e-13 0 0)
(-2.84217e-13 0 0)
(-4.97379e-13 0 0)
(-5.47119e-13 0 0)
(-3.90798e-13 0 0)
(-3.97904e-13 0 0)
(-1.49214e-13 0 0)
(1.63425e-13 0 0)
(4.83169e-13 0 0)
(6.32383e-13 0 0)
(6.11067e-13 0 0)
(6.03961e-13 0 0)
(3.97905e-13 0 0)
(2.77111e-13 0 0)
(3.12639e-13 0 0)
(3.62377e-13 0 0)
(7.10542e-14 0 0)
(-3.55275e-14 0 0)
(-1.42104e-14 0 0)
(1.42104e-14 0 0)
(-1.98952e-13 0 0)
(-2.4869e-13 0 0)
(1.42105e-14 0 0)
(3.33956e-13 0 0)
(3.12638e-13 0 0)
(9.94762e-14 0 0)
(1.84741e-13 0 0)
(4.54747e-13 0 0)
(4.47642e-13 0 0)
(4.05009e-13 0 0)
(1.91847e-13 0 0)
(4.33431e-13 0 0)
(2.91323e-13 0 0)
(3.69482e-13 0 0)
(4.68958e-13 0 0)
(6.11067e-13 0 0)
(4.76064e-13 0 0)
(1.5632e-13 0 0)
(1.7053e-13 0 0)
(3.12639e-13 0 0)
(6.39491e-14 0 0)
(2.1316e-14 0 0)
(-1.77635e-13 0 0)
(-2.91323e-13 0 0)
(-3.19744e-13 0 0)
(-5.40012e-13 0 0)
(-4.47642e-13 0 0)
(-4.76064e-13 0 0)
(-6.11067e-13 0 0)
(-2.98428e-13 0 0)
(-3.55274e-14 0 0)
(2.84222e-14 0 0)
(4.33431e-13 0 0)
(5.25802e-13 0 0)
(6.82121e-13 0 0)
(5.47118e-13 0 0)
(4.9738e-13 0 0)
(4.83169e-13 0 0)
(6.03961e-13 0 0)
(6.11067e-13 0 0)
(4.40537e-13 0 0)
(3.33955e-13 0 0)
(5.54224e-13 0 0)
(8.10018e-13 0 0)
(7.3186e-13 0 0)
(7.81596e-13 0 0)
(7.60281e-13 0 0)
(5.47118e-13 0 0)
(4.83169e-13 0 0)
(3.90798e-13 0 0)
(5.68435e-14 0 0)
(-4.26327e-14 0 0)
(4.2633e-14 0 0)
(5.96856e-13 0 0)
(9.9476e-13 0 0)
(1.21503e-12 0 0)
(1.08002e-12 0 0)
(1.10845e-12 0 0)
(9.09495e-13 0 0)
(8.59757e-13 0 0)
(9.37916e-13 0 0)
(9.30811e-13 0 0)
(9.87654e-13 0 0)
(8.73968e-13 0 0)
(8.24229e-13 0 0)
(5.82646e-13 0 0)
(3.4106e-13 0 0)
(2.62901e-13 0 0)
(3.76588e-13 0 0)
(2.98428e-13 0 0)
(4.05009e-13 0 0)
(5.32907e-13 0 0)
(6.96332e-13 0 0)
(8.66863e-13 0 0)
(9.37916e-13 0 0)
(9.09495e-13 0 0)
(7.67386e-13 0 0)
(4.47643e-13 0 0)
(3.90798e-13 0 0)
(4.19221e-13 0 0)
(3.69482e-13 0 0)
(5.68436e-14 0 0)
(1.49214e-13 0 0)
(1.7053e-13 0 0)
(2.13173e-14 0 0)
(9.23696e-14 0 0)
(3.55278e-14 0 0)
(2.41584e-13 0 0)
(2.84218e-13 0 0)
(2.98428e-13 0 0)
(3.69482e-13 0 0)
(3.26849e-13 0 0)
(3.2685e-13 0 0)
(5.75539e-13 0 0)
(3.76588e-13 0 0)
(3.12639e-13 0 0)
(2.20269e-13 0 0)
(2.48689e-13 0 0)
(4.83169e-13 0 0)
(5.11591e-13 0 0)
(5.11591e-13 0 0)
(8.38441e-13 0 0)
(7.31859e-13 0 0)
(7.74492e-13 0 0)
(8.88178e-13 0 0)
(7.88702e-13 0 0)
(9.73443e-13 0 0)
(8.59757e-13 0 0)
(6.46594e-13 0 0)
(6.18173e-13 0 0)
(8.10018e-13 0 0)
(7.74492e-13 0 0)
(7.03437e-13 0 0)
(6.25278e-13 0 0)
(5.47118e-13 0 0)
(1.27898e-13 0 0)
(9.23699e-14 0 0)
(-1.70529e-13 0 0)
(5.68424e-14 0 0)
(1.70531e-13 0 0)
(1.84741e-13 0 0)
(5.68438e-14 0 0)
(-1.42109e-13 0 0)
(-1.42109e-13 0 0)
(2.06058e-13 0 0)
(9.23702e-14 0 0)
(-1.20792e-13 0 0)
(-6.39491e-14 0 0)
(5.68438e-14 0 0)
(9.94756e-14 0 0)
(-9.23704e-14 0 0)
(-1.27897e-13 0 0)
(1.13687e-13 0 0)
(-1.20793e-13 0 0)
(-5.47118e-13 0 0)
(-4.40537e-13 0 0)
(-6.6791e-13 0 0)
(-5.11591e-13 0 0)
(-3.26849e-13 0 0)
(-1.63426e-13 0 0)
(-8.52646e-14 0 0)
(7.10541e-14 0 0)
(1.06581e-13 0 0)
(4.97381e-14 0 0)
(2.55795e-13 0 0)
(3.83693e-13 0 0)
(4.97376e-14 0 0)
(4.26328e-14 0 0)
(1.42108e-14 0 0)
(-2.58077e-20 0 0)
(4.26329e-14 0 0)
(-7.10547e-14 0 0)
(2.84217e-14 0 0)
(2.34479e-13 0 0)
(3.5527e-14 0 0)
(-5.68436e-14 0 0)
(6.39493e-14 0 0)
(7.81591e-14 0 0)
(-9.23697e-14 0 0)
(1.8474e-13 0 0)
(2.3448e-13 0 0)
(4.68957e-13 0 0)
(4.8317e-13 0 0)
(6.53699e-13 0 0)
(4.68959e-13 0 0)
(2.98428e-13 0 0)
(2.13163e-13 0 0)
(3.90798e-13 0 0)
(6.39489e-13 0 0)
(6.25278e-13 0 0)
(6.60805e-13 0 0)
(5.32907e-13 0 0)
(5.54223e-13 0 0)
(4.83169e-13 0 0)
(1.56319e-13 0 0)
(1.70531e-13 0 0)
(-2.84222e-14 0 0)
(6.39496e-14 0 0)
(2.77111e-13 0 0)
(2.06058e-13 0 0)
(-1.49214e-13 0 0)
(-5.1159e-13 0 0)
(7.81592e-14 0 0)
(-1.13687e-13 0 0)
(-5.68435e-14 0 0)
(-2.34479e-13 0 0)
(-1.06582e-13 0 0)
(5.6844e-14 0 0)
(1.63424e-13 0 0)
(-2.62901e-13 0 0)
(-4.90274e-13 0 0)
(-3.83693e-13 0 0)
(-1.49214e-13 0 0)
(2.13164e-14 0 0)
(4.97378e-14 0 0)
(2.77112e-13 0 0)
(4.68959e-13 0 0)
(7.38964e-13 0 0)
(6.75016e-13 0 0)
(8.31335e-13 0 0)
(7.81597e-13 0 0)
(7.67386e-13 0 0)
(5.82645e-13 0 0)
(3.2685e-13 0 0)
(1.35003e-13 0 0)
(9.94765e-14 0 0)
(7.8159e-14 0 0)
(-3.12638e-13 0 0)
(-5.18697e-13 0 0)
(-5.54223e-13 0 0)
(-2.98428e-13 0 0)
(-7.10541e-14 0 0)
(1.7053e-13 0 0)
(3.55273e-14 0 0)
(2.34479e-13 0 0)
(2.13163e-13 0 0)
(4.76064e-13 0 0)
(3.69482e-13 0 0)
(1.49214e-13 0 0)
(1.06581e-13 0 0)
(4.26334e-14 0 0)
(2.70005e-13 0 0)
(-1.77635e-13 0 0)
(4.26321e-14 0 0)
(-7.81594e-14 0 0)
(6.39486e-14 0 0)
(2.13163e-13 0 0)
(3.55266e-14 0 0)
(1.20793e-13 0 0)
(-1.42111e-14 0 0)
(-9.23705e-14 0 0)
(5.68434e-14 0 0)
(-5.68432e-14 0 0)
(-2.20268e-13 0 0)
(-4.40536e-13 0 0)
(-3.19744e-13 0 0)
(-3.55272e-14 0 0)
(-3.19744e-13 0 0)
(-5.68434e-13 0 0)
(-5.7554e-13 0 0)
(-6.89226e-13 0 0)
(-8.45546e-13 0 0)
(-1.3074e-12 0 0)
(-1.24345e-12 0 0)
(-1.10845e-12 0 0)
(-7.53176e-13 0 0)
(-6.39488e-13 0 0)
(-2.91323e-13 0 0)
(-1.06581e-13 0 0)
(-2.97815e-19 0 0)
(4.12115e-13 0 0)
(4.68958e-13 0 0)
(1.7053e-13 0 0)
(2.91322e-13 0 0)
(3.4106e-13 0 0)
(3.41061e-13 0 0)
(2.27374e-13 0 0)
(-5.68434e-14 0 0)
(-7.1056e-15 0 0)
(-1.06581e-13 0 0)
(-2.06058e-13 0 0)
(-3.55271e-13 0 0)
(-2.41585e-13 0 0)
(-2.70006e-13 0 0)
(-5.75539e-13 0 0)
(-3.2685e-13 0 0)
(-2.13162e-13 0 0)
(-1.42111e-14 0 0)
(2.84217e-13 0 0)
(2.84217e-13 0 0)
(2.4869e-13 0 0)
(2.06057e-13 0 0)
(1.63425e-13 0 0)
(-4.26328e-14 0 0)
(1.27898e-13 0 0)
(2.13162e-14 0 0)
(-1.20793e-13 0 0)
(-3.62376e-13 0 0)
(-7.53176e-13 0 0)
(-6.46593e-13 0 0)
(-6.03962e-13 0 0)
(-7.46069e-13 0 0)
(-6.75016e-13 0 0)
(-3.83692e-13 0 0)
(9.237e-14 0 0)
(-1.42108e-13 0 0)
(4.2632e-14 0 0)
(1.98952e-13 0 0)
(-2.13168e-14 0 0)
(-5.25801e-13 0 0)
(-7.3186e-13 0 0)
(-9.52127e-13 0 0)
(-6.75016e-13 0 0)
(-6.11066e-13 0 0)
(-8.10019e-13 0 0)
(-7.24753e-13 0 0)
(-5.82645e-13 0 0)
(-5.7554e-13 0 0)
(-6.46593e-13 0 0)
(-6.25278e-13 0 0)
(-5.75539e-13 0 0)
(-4.33431e-13 0 0)
(-4.47642e-13 0 0)
(-4.12115e-13 0 0)
(-2.91322e-13 0 0)
(8.52647e-14 0 0)
(1.70531e-13 0 0)
(2.34479e-13 0 0)
(5.40013e-13 0 0)
(7.4607e-13 0 0)
(1.22213e-12 0 0)
(1.67688e-12 0 0)
(2.42295e-12 0 0)
(3.57403e-12 0 0)
(5.69855e-12 0 0)
(9.20153e-12 0 0)
(1.4559e-11 0 0)
(2.33698e-11 0 0)
(3.74527e-11 0 0)
(6.10072e-11 0 0)
(1.00023e-10 0 0)
(1.63482e-10 0 0)
(2.65807e-10 0 0)
(4.30433e-10 0 0)
(6.94598e-10 0 0)
(1.11583e-09 0 0)
(1.78513e-09 0 0)
(2.84383e-09 0 0)
(4.51177e-09 0 0)
(7.12768e-09 0 0)
(1.12126e-08 0 0)
(1.75637e-08 0 0)
(2.73939e-08 0 0)
(4.25411e-08 0 0)
(6.57765e-08 0 0)
(1.01258e-07 0 0)
(1.55191e-07 0 0)
(2.36793e-07 0 0)
(3.59687e-07 0 0)
(5.43899e-07 0 0)
(8.18723e-07 0 0)
(1.22678e-06 0 0)
(1.82974e-06 0 0)
(2.71641e-06 0 0)
(4.01391e-06 0 0)
(5.90325e-06 0 0)
(8.64073e-06 0 0)
(1.25873e-05 0 0)
(1.82481e-05 0 0)
(2.63266e-05 0 0)
(3.7796e-05 0 0)
(5.39953e-05 0 0)
(7.67555e-05 0 0)
(0.000108565 0 0)
(0.000152785 0 0)
(0.000213928 0 0)
(0.00029801 0 0)
(0.000413006 0 0)
(0.000569413 0 0)
(0.000780956 0 0)
(0.00106546 0 0)
(0.00144592 0 0)
(0.00195178 0 0)
(0.00262046 0 0)
(0.00349922 0 0)
(0.00464723 0 0)
(0.00613807 0 0)
(0.00806244 0 0)
(0.0105314 0 0)
(0.0136795 0 0)
(0.017669 0 0)
(0.0226931 0 0)
(0.0289803 0 0)
(0.0367986 0 0)
(0.0464586 0 0)
(0.0583178 0 0)
(0.0727826 0 0)
(0.0903114 0 0)
(0.111415 0 0)
(0.136656 0 0)
(0.166648 0 0)
(0.202053 0 0)
(0.243575 0 0)
(0.291953 0 0)
(0.347954 0 0)
(0.412362 0 0)
(0.485964 0 0)
(0.569542 0 0)
(0.663855 0 0)
(0.769628 0 0)
(0.887535 0 0)
(1.01819 0 0)
(1.16212 0 0)
(1.3198 0 0)
(1.49156 0 0)
(1.67768 0 0)
(1.87829 0 0)
(2.09345 0 0)
(2.3231 0 0)
(2.56706 0 0)
(2.82507 0 0)
(3.09679 0 0)
(3.38176 0 0)
(3.67948 0 0)
(3.98937 0 0)
(4.31081 0 0)
(4.64313 0 0)
(4.98564 0 0)
(5.33763 0 0)
(5.69836 0 0)
(6.06714 0 0)
(6.44324 0 0)
(6.82598 0 0)
(7.21469 0 0)
(7.60875 0 0)
(8.00754 0 0)
(8.41051 0 0)
(8.81713 0 0)
(9.22692 0 0)
(9.63943 0 0)
(10.0543 0 0)
(10.4711 0 0)
(10.8896 0 0)
(11.3094 0 0)
(11.7304 0 0)
(12.1522 0 0)
(12.5748 0 0)
(12.998 0 0)
(13.4216 0 0)
(13.8455 0 0)
(14.2696 0 0)
(14.6939 0 0)
(15.1184 0 0)
(15.5428 0 0)
(15.9673 0 0)
(16.3919 0 0)
(16.8164 0 0)
(17.2408 0 0)
(17.6653 0 0)
(18.0898 0 0)
(18.5142 0 0)
(18.9386 0 0)
(19.3631 0 0)
(19.7875 0 0)
(20.212 0 0)
(20.6366 0 0)
(21.0612 0 0)
(21.4859 0 0)
(21.9107 0 0)
(22.3357 0 0)
(22.7608 0 0)
(23.186 0 0)
(23.6115 0 0)
(24.0371 0 0)
(24.463 0 0)
(24.8892 0 0)
(25.3156 0 0)
(25.7422 0 0)
(26.1692 0 0)
(26.5965 0 0)
(27.0242 0 0)
(27.4522 0 0)
(27.8805 0 0)
(28.3093 0 0)
(28.7385 0 0)
(29.1681 0 0)
(29.5981 0 0)
(30.0286 0 0)
(30.4595 0 0)
(30.8909 0 0)
(31.3228 0 0)
(31.7552 0 0)
(32.1881 0 0)
(32.6216 0 0)
(33.0556 0 0)
(33.4901 0 0)
(33.9252 0 0)
(34.3608 0 0)
(34.797 0 0)
(35.2338 0 0)
(35.6711 0 0)
(36.1091 0 0)
(36.5476 0 0)
(36.9867 0 0)
(37.4265 0 0)
(37.8668 0 0)
(38.3078 0 0)
(38.7494 0 0)
(39.1916 0 0)
(39.6345 0 0)
(40.078 0 0)
(40.5221 0 0)
(40.967 0 0)
(41.4124 0 0)
(41.8586 0 0)
(42.3054 0 0)
(42.753 0 0)
(43.2012 0 0)
(43.6502 0 0)
(44.0999 0 0)
(44.5504 0 0)
(45.0016 0 0)
(45.4536 0 0)
(45.9064 0 0)
(46.36 0 0)
(46.8145 0 0)
(47.2698 0 0)
(47.7259 0 0)
(48.1829 0 0)
(48.6408 0 0)
(49.0997 0 0)
(49.5594 0 0)
(50.0201 0 0)
(50.4818 0 0)
(50.9445 0 0)
(51.4082 0 0)
(51.8729 0 0)
(52.3387 0 0)
(52.8055 0 0)
(53.2734 0 0)
(53.7424 0 0)
(54.2126 0 0)
(54.6839 0 0)
(55.1563 0 0)
(55.6299 0 0)
(56.1048 0 0)
(56.5808 0 0)
(57.0581 0 0)
(57.5367 0 0)
(58.0165 0 0)
(58.4976 0 0)
(58.9801 0 0)
(59.4638 0 0)
(59.949 0 0)
(60.4355 0 0)
(60.9235 0 0)
(61.4128 0 0)
(61.9037 0 0)
(62.3959 0 0)
(62.8898 0 0)
(63.3851 0 0)
(63.882 0 0)
(64.3804 0 0)
(64.8806 0 0)
(65.3821 0 0)
(65.8859 0 0)
(66.3904 0 0)
(66.8982 0 0)
(67.4054 0 0)
(67.9179 0 0)
(68.4272 0 0)
(68.9453 0 0)
(69.4562 0 0)
(69.9807 0 0)
(70.4929 0 0)
(71.024 0 0)
(71.5378 0 0)
(72.0753 0 0)
(72.5918 0 0)
(73.1345 0 0)
(73.6554 0 0)
(74.2021 0 0)
(74.7282 0 0)
(75.2791 0 0)
(75.8106 0 0)
(76.3664 0 0)
(76.9025 0 0)
(77.4638 0 0)
(78.0052 0 0)
(78.5716 0 0)
(79.1193 0 0)
(79.6903 0 0)
(80.2447 0 0)
(80.821 0 0)
(81.3817 0 0)
(81.9638 0 0)
(82.5317 0 0)
(83.1188 0 0)
(83.6957 0 0)
(84.2862 0 0)
(84.8745 0 0)
(85.4664 0 0)
(86.0702 0 0)
(86.6586 0 0)
(87.2857 0 0)
(87.8622 0 0)
(88.5229 0 0)
(89.0775 0 0)
(89.7822 0 0)
(90.3049 0 0)
(91.0623 0 0)
(91.5486 0 0)
(92.3584 0 0)
(92.8163 0 0)
(93.6634 0 0)
(94.1104 0 0)
(94.9698 0 0)
(95.4218 0 0)
(96.2706 0 0)
(96.7227 0 0)
(97.5529 0 0)
(97.9727 0 0)
(98.7692 0 0)
(99.1605 0 0)
(99.9364 0 0)
(100.325 0 0)
(101.104 0 0)
(101.497 0 0)
(102.287 0 0)
(102.686 0 0)
(103.484 0 0)
(103.884 0 0)
(104.686 0 0)
(105.086 0 0)
(105.886 0 0)
(106.285 0 0)
(107.084 0 0)
(107.484 0 0)
(108.284 0 0)
(108.684 0 0)
(109.485 0 0)
(109.886 0 0)
(110.688 0 0)
(111.088 0 0)
(111.889 0 0)
(112.289 0 0)
(113.089 0 0)
(113.488 0 0)
(114.287 0 0)
(114.686 0 0)
(115.484 0 0)
(115.882 0 0)
(116.678 0 0)
(117.075 0 0)
(117.868 0 0)
(118.266 0 0)
(119.052 0 0)
(119.457 0 0)
(120.228 0 0)
(120.644 0 0)
(121.399 0 0)
(121.821 0 0)
(122.567 0 0)
(122.992 0 0)
(123.725 0 0)
(124.156 0 0)
(124.875 0 0)
(125.311 0 0)
(126.015 0 0)
(126.455 0 0)
(127.146 0 0)
(127.588 0 0)
(128.263 0 0)
(128.708 0 0)
(129.366 0 0)
(129.812 0 0)
(130.452 0 0)
(130.899 0 0)
(131.521 0 0)
(131.967 0 0)
(132.569 0 0)
(133.014 0 0)
(133.594 0 0)
(134.036 0 0)
(134.594 0 0)
(135.031 0 0)
(135.565 0 0)
(135.997 0 0)
(136.504 0 0)
(136.928 0 0)
(137.408 0 0)
(137.823 0 0)
(138.272 0 0)
(138.674 0 0)
(139.091 0 0)
(139.477 0 0)
(139.857 0 0)
(140.222 0 0)
(140.564 0 0)
(140.9 0 0)
(141.202 0 0)
(141.501 0 0)
(141.761 0 0)
(142.007 0 0)
(142.218 0 0)
(142.399 0 0)
(142.568 0 0)
(142.701 0 0)
(142.829 0 0)
(142.915 0 0)
(142.963 0 0)
(142.991 0 0)
(142.943 0 0)
(142.824 0 0)
(142.555 0 0)
(142.386 0 0)
(142.031 0 0)
(141.936 0 0)
(142.941 0 0)
)
;

boundaryField
{
    sideLeft
    {
        type            symmetryPlane;
    }
    sideRight
    {
        type            myWaveTransmissive;
        phi             phi.air;
        rho             rho.air;
        psi             thermo:psi.air;
        gamma           1.4;
        fieldInf        (0 0 0);
        lInf            10;
        value           uniform (142.513 0 0);
    }
    topbottom
    {
        type            empty;
    }
    frontback
    {
        type            empty;
    }
}


// ************************************************************************* //
