/*--------------------------------*- C++ -*----------------------------------*\
| =========                 |                                                 |
| \\      /  F ield         | OpenFOAM: The Open Source CFD Toolbox           |
|  \\    /   O peration     | Version:  2.4.0                                 |
|   \\  /    A nd           | Web:      www.OpenFOAM.org                      |
|    \\/     M anipulation  |                                                 |
\*---------------------------------------------------------------------------*/
FoamFile
{
    version     2.0;
    format      ascii;
    class       volVectorField;
    location    "0.1";
    object      U.waterMean;
}
// * * * * * * * * * * * * * * * * * * * * * * * * * * * * * * * * * * * * * //

dimensions      [0 1 -1 0 0 0 0];

internalField   nonuniform List<vector> 
1000
(
(-7.58712e-14 0 0)
(-3.82913e-14 0 0)
(-7.35339e-14 0 0)
(-4.27536e-14 0 0)
(-9.36137e-14 0 0)
(-3.72328e-14 0 0)
(-8.62739e-14 0 0)
(-6.12844e-14 0 0)
(-7.29798e-14 0 0)
(-6.16183e-14 0 0)
(-8.09166e-14 0 0)
(-9.6122e-14 0 0)
(-5.85348e-14 0 0)
(-1.12457e-13 0 0)
(-2.62122e-14 0 0)
(-7.69373e-14 0 0)
(-6.02558e-15 0 0)
(-4.48635e-14 0 0)
(-2.77383e-16 0 0)
(-7.60917e-14 0 0)
(1.31873e-14 0 0)
(-6.04953e-14 0 0)
(-2.84147e-14 0 0)
(-6.4432e-14 0 0)
(-8.74891e-14 0 0)
(-7.01235e-14 0 0)
(-7.919e-14 0 0)
(-6.31888e-14 0 0)
(-1.15051e-13 0 0)
(-3.61741e-14 0 0)
(-8.83416e-14 0 0)
(-7.95949e-14 0 0)
(-5.80159e-14 0 0)
(-6.36006e-14 0 0)
(-2.04711e-14 0 0)
(-1.07441e-13 0 0)
(2.33976e-14 0 0)
(-7.90901e-14 0 0)
(-3.22619e-15 0 0)
(-7.52533e-14 0 0)
(-1.55643e-15 0 0)
(-6.2158e-14 0 0)
(-2.72139e-14 0 0)
(-5.73549e-14 0 0)
(-1.54758e-14 0 0)
(-4.54605e-14 0 0)
(-4.67608e-14 0 0)
(-4.85017e-14 0 0)
(-6.00124e-14 0 0)
(-6.04389e-14 0 0)
(-9.58164e-14 0 0)
(-4.98022e-14 0 0)
(-7.93319e-14 0 0)
(-2.65816e-14 0 0)
(-7.36547e-14 0 0)
(-4.65477e-14 0 0)
(-6.78853e-14 0 0)
(-5.86908e-14 0 0)
(-8.66719e-14 0 0)
(-6.40485e-14 0 0)
(-9.92697e-14 0 0)
(-2.9104e-14 0 0)
(-6.54267e-14 0 0)
(-7.44648e-14 0 0)
(-4.90275e-14 0 0)
(-4.83737e-14 0 0)
(-2.03714e-14 0 0)
(-3.03331e-14 0 0)
(-5.09458e-14 0 0)
(-2.50966e-14 0 0)
(-5.90743e-14 0 0)
(-4.18441e-14 0 0)
(-8.10016e-14 0 0)
(-4.35493e-14 0 0)
(-5.80727e-14 0 0)
(-8.63449e-14 0 0)
(-5.14365e-14 0 0)
(-9.69178e-14 0 0)
(-8.24301e-14 0 0)
(-5.47686e-14 0 0)
(-5.68009e-14 0 0)
(-3.22729e-14 0 0)
(-2.63539e-14 0 0)
(-9.52259e-16 0 0)
(-4.89989e-14 0 0)
(-1.51845e-14 0 0)
(-6.06517e-14 0 0)
(-1.47795e-14 0 0)
(-5.6616e-14 0 0)
(-6.70182e-14 0 0)
(-2.91395e-14 0 0)
(-4.31726e-14 0 0)
(-5.46406e-14 0 0)
(-3.75736e-14 0 0)
(-6.58246e-14 0 0)
(-1.15538e-14 0 0)
(-9.59513e-14 0 0)
(-8.61213e-15 0 0)
(-9.82607e-14 0 0)
(-7.22623e-14 0 0)
(-1.0295e-13 0 0)
(-9.37206e-14 0 0)
(-1.18895e-13 0 0)
(-1.12912e-13 0 0)
(-1.13616e-13 0 0)
(-1.45597e-13 0 0)
(-1.0575e-13 0 0)
(-1.38257e-13 0 0)
(-1.69955e-13 0 0)
(-1.42464e-13 0 0)
(-1.88031e-13 0 0)
(-1.42762e-13 0 0)
(-1.86354e-13 0 0)
(-1.58799e-13 0 0)
(-1.96053e-13 0 0)
(-1.76868e-13 0 0)
(-1.67915e-13 0 0)
(-1.33369e-13 0 0)
(-1.31777e-13 0 0)
(-1.60952e-13 0 0)
(-1.13644e-13 0 0)
(-1.34769e-13 0 0)
(-8.69279e-14 0 0)
(-1.23663e-13 0 0)
(-9.55823e-14 0 0)
(-1.3906e-13 0 0)
(-1.05296e-13 0 0)
(-1.51679e-13 0 0)
(-8.98698e-14 0 0)
(-1.76889e-13 0 0)
(-9.63358e-14 0 0)
(-1.89238e-13 0 0)
(-1.37533e-13 0 0)
(-1.56291e-13 0 0)
(-1.09651e-13 0 0)
(-1.40126e-13 0 0)
(-1.24445e-13 0 0)
(-1.18519e-13 0 0)
(-8.8953e-14 0 0)
(-1.098e-13 0 0)
(-1.07974e-13 0 0)
(-9.67192e-14 0 0)
(-1.46308e-13 0 0)
(-9.79841e-14 0 0)
(-1.55751e-13 0 0)
(-9.32234e-14 0 0)
(-1.24402e-13 0 0)
(-1.32388e-13 0 0)
(-1.1304e-13 0 0)
(-1.28608e-13 0 0)
(-1.28622e-13 0 0)
(-1.45398e-13 0 0)
(-1.41107e-13 0 0)
(-1.47779e-13 0 0)
(-1.26704e-13 0 0)
(-1.29638e-13 0 0)
(-1.32751e-13 0 0)
(-1.29376e-13 0 0)
(-1.43515e-13 0 0)
(-1.15527e-13 0 0)
(-1.57598e-13 0 0)
(-8.63312e-14 0 0)
(-1.31798e-13 0 0)
(-8.33255e-14 0 0)
(-1.25062e-13 0 0)
(-7.07347e-14 0 0)
(-1.40183e-13 0 0)
(-8.67504e-14 0 0)
(-1.49889e-13 0 0)
(-1.38577e-13 0 0)
(-1.43928e-13 0 0)
(-1.28694e-13 0 0)
(-1.66956e-13 0 0)
(-1.3376e-13 0 0)
(-1.84307e-13 0 0)
(-1.4331e-13 0 0)
(-1.98099e-13 0 0)
(-1.59283e-13 0 0)
(-2.16623e-13 0 0)
(-2.09958e-13 0 0)
(-1.91427e-13 0 0)
(-1.81572e-13 0 0)
(-1.53726e-13 0 0)
(-2.16182e-13 0 0)
(-1.38784e-13 0 0)
(-2.02192e-13 0 0)
(-1.34684e-13 0 0)
(-2.31182e-13 0 0)
(-9.31953e-14 0 0)
(-1.9169e-13 0 0)
(-8.58907e-14 0 0)
(-1.71411e-13 0 0)
(-8.91662e-14 0 0)
(-1.49221e-13 0 0)
(-1.20757e-13 0 0)
(-1.33099e-13 0 0)
(-1.22128e-13 0 0)
(-1.13452e-13 0 0)
(-1.03576e-13 0 0)
(-1.20224e-13 0 0)
(-8.43203e-14 0 0)
(-1.41419e-13 0 0)
(-6.27909e-14 0 0)
(-1.03682e-13 0 0)
(-7.9659e-14 0 0)
(-7.32924e-14 0 0)
(-4.08493e-14 0 0)
(-5.29069e-14 0 0)
(-6.20161e-14 0 0)
(-2.66027e-14 0 0)
(-1.99947e-14 0 0)
(-7.0351e-16 0 0)
(-2.16075e-14 0 0)
(3.75947e-14 0 0)
(-6.37687e-17 0 0)
(6.13054e-14 0 0)
(2.77326e-14 0 0)
(3.68914e-14 0 0)
(4.3599e-14 0 0)
(5.76533e-14 0 0)
(5.57989e-14 0 0)
(4.5084e-14 0 0)
(5.80868e-14 0 0)
(3.93427e-14 0 0)
(9.17333e-15 0 0)
(3.10435e-14 0 0)
(3.41344e-14 0 0)
(-1.58662e-14 0 0)
(3.22015e-14 0 0)
(-1.53334e-14 0 0)
(-2.3114e-14 0 0)
(-3.53211e-14 0 0)
(-4.3144e-14 0 0)
(-4.40555e-15 0 0)
(-5.41289e-14 0 0)
(1.95042e-14 0 0)
(-4.91054e-14 0 0)
(1.57012e-15 0 0)
(-5.96642e-14 0 0)
(-4.80752e-14 0 0)
(-3.11361e-14 0 0)
(-1.63497e-14 0 0)
(-7.29581e-14 0 0)
(2.66663e-14 0 0)
(-2.41653e-14 0 0)
(-1.86891e-15 0 0)
(-3.03187e-14 0 0)
(6.93481e-15 0 0)
(-4.94528e-15 0 0)
(3.32533e-14 0 0)
(2.84858e-14 0 0)
(4.80254e-14 0 0)
(3.73248e-14 0 0)
(-9.27949e-15 0 0)
(3.98967e-14 0 0)
(-1.61859e-14 0 0)
(4.92972e-14 0 0)
(1.22231e-15 0 0)
(4.59434e-14 0 0)
(-1.83174e-14 0 0)
(5.37948e-14 0 0)
(1.14471e-14 0 0)
(4.43945e-14 0 0)
(2.7768e-14 0 0)
(5.55656e-15 0 0)
(3.17255e-14 0 0)
(-3.33383e-14 0 0)
(7.01018e-14 0 0)
(7.90856e-15 0 0)
(7.30863e-14 0 0)
(1.72948e-14 0 0)
(7.17718e-14 0 0)
(1.76358e-14 0 0)
(5.28928e-14 0 0)
(2.67946e-14 0 0)
(7.15089e-14 0 0)
(2.05137e-14 0 0)
(1.01195e-13 0 0)
(4.69316e-14 0 0)
(1.0202e-13 0 0)
(9.58097e-14 0 0)
(1.21773e-13 0 0)
(1.29404e-13 0 0)
(6.42193e-14 0 0)
(1.5558e-13 0 0)
(1.10703e-13 0 0)
(1.20956e-13 0 0)
(1.2831e-13 0 0)
(1.32893e-13 0 0)
(1.05054e-13 0 0)
(1.22924e-13 0 0)
(1.12209e-13 0 0)
(1.30036e-13 0 0)
(8.01707e-14 0 0)
(1.505e-13 0 0)
(1.04222e-13 0 0)
(1.25709e-13 0 0)
(1.4554e-13 0 0)
(1.64412e-13 0 0)
(1.21311e-13 0 0)
(1.86013e-13 0 0)
(1.58792e-13 0 0)
(1.60554e-13 0 0)
(1.83604e-13 0 0)
(1.32296e-13 0 0)
(1.98412e-13 0 0)
(1.52603e-13 0 0)
(1.5563e-13 0 0)
(1.46116e-13 0 0)
(1.28196e-13 0 0)
(1.46819e-13 0 0)
(1.18199e-13 0 0)
(1.44332e-13 0 0)
(1.17822e-13 0 0)
(1.59062e-13 0 0)
(1.39814e-13 0 0)
(1.61911e-13 0 0)
(1.3452e-13 0 0)
(1.24132e-13 0 0)
(1.63339e-13 0 0)
(1.39359e-13 0 0)
(1.28132e-13 0 0)
(1.56454e-13 0 0)
(1.17034e-13 0 0)
(1.67439e-13 0 0)
(1.13204e-13 0 0)
(1.04542e-13 0 0)
(1.13125e-13 0 0)
(1.01792e-13 0 0)
(1.0126e-13 0 0)
(1.28601e-13 0 0)
(1.36922e-13 0 0)
(1.00563e-13 0 0)
(1.55282e-13 0 0)
(9.62788e-14 0 0)
(1.46102e-13 0 0)
(9.13048e-14 0 0)
(8.44694e-14 0 0)
(9.55538e-14 0 0)
(9.43743e-14 0 0)
(1.11008e-13 0 0)
(8.30269e-14 0 0)
(9.22781e-14 0 0)
(4.27252e-14 0 0)
(8.30337e-14 0 0)
(-5.19369e-15 0 0)
(6.53411e-14 0 0)
(-5.72659e-15 0 0)
(9.13729e-15 0 0)
(-2.32488e-14 0 0)
(-7.56024e-15 0 0)
(-1.35571e-14 0 0)
(-6.56544e-15 0 0)
(-3.4113e-14 0 0)
(2.2787e-14 0 0)
(2.79234e-15 0 0)
(-2.72207e-14 0 0)
(6.50126e-15 0 0)
(7.39689e-15 0 0)
(2.16502e-14 0 0)
(5.86195e-15 0 0)
(-1.01821e-14 0 0)
(-3.34096e-14 0 0)
(-8.10015e-15 0 0)
(-2.99859e-15 0 0)
(1.17878e-14 0 0)
(-4.45366e-14 0 0)
(7.10337e-16 0 0)
(-3.8767e-14 0 0)
(-8.98128e-15 0 0)
(-1.87867e-14 0 0)
(4.46914e-15 0 0)
(-2.65315e-14 0 0)
(1.49141e-14 0 0)
(-1.1006e-14 0 0)
(4.10407e-14 0 0)
(1.84245e-14 0 0)
(6.26341e-14 0 0)
(1.35274e-16 0 0)
(8.04615e-14 0 0)
(1.99595e-14 0 0)
(6.9164e-14 0 0)
(3.23866e-14 0 0)
(2.50893e-14 0 0)
(2.98425e-14 0 0)
(-5.00643e-14 0 0)
(5.62532e-14 0 0)
(-3.12422e-14 0 0)
(3.49015e-14 0 0)
(-3.78716e-14 0 0)
(-1.2802e-16 0 0)
(-9.83385e-15 0 0)
(2.72918e-14 0 0)
(-3.25496e-14 0 0)
(4.66895e-14 0 0)
(-1.57028e-14 0 0)
(3.17327e-14 0 0)
(9.89096e-15 0 0)
(8.06251e-14 0 0)
(5.36176e-14 0 0)
(7.78754e-14 0 0)
(7.78825e-14 0 0)
(4.7294e-14 0 0)
(1.04393e-13 0 0)
(7.46071e-14 0 0)
(8.02629e-14 0 0)
(8.96064e-14 0 0)
(9.62785e-14 0 0)
(4.88144e-14 0 0)
(9.66621e-14 0 0)
(5.78383e-14 0 0)
(1.05594e-13 0 0)
(6.06166e-14 0 0)
(8.42632e-14 0 0)
(5.99129e-14 0 0)
(8.10375e-14 0 0)
(5.44418e-14 0 0)
(9.61433e-14 0 0)
(-3.53799e-15 0 0)
(1.33979e-13 0 0)
(5.03351e-14 0 0)
(8.82564e-14 0 0)
(6.77008e-14 0 0)
(1.09345e-13 0 0)
(8.1613e-14 0 0)
(6.96475e-14 0 0)
(9.62287e-14 0 0)
(4.8587e-14 0 0)
(7.44079e-14 0 0)
(4.49421e-14 0 0)
(9.34219e-14 0 0)
(7.63124e-14 0 0)
(8.00783e-14 0 0)
(1.22462e-13 0 0)
(1.29987e-13 0 0)
(1.01757e-13 0 0)
(1.13488e-13 0 0)
(4.65834e-14 0 0)
(9.73725e-14 0 0)
(1.50354e-14 0 0)
(1.00286e-13 0 0)
(3.65861e-14 0 0)
(7.40314e-14 0 0)
(6.3828e-14 0 0)
(6.30607e-14 0 0)
(8.52721e-14 0 0)
(5.42785e-14 0 0)
(9.64489e-14 0 0)
(6.11139e-14 0 0)
(6.98108e-14 0 0)
(5.85914e-14 0 0)
(3.58754e-14 0 0)
(8.81142e-14 0 0)
(7.57651e-14 0 0)
(6.02329e-14 0 0)
(8.00567e-14 0 0)
(7.21272e-14 0 0)
(3.4227e-14 0 0)
(7.70652e-14 0 0)
(-6.42292e-15 0 0)
(9.80331e-14 0 0)
(2.10356e-15 0 0)
(7.55162e-14 0 0)
(-1.31519e-14 0 0)
(4.15381e-14 0 0)
(-3.05531e-14 0 0)
(3.60946e-15 0 0)
(-2.43501e-14 0 0)
(1.82394e-14 0 0)
(-9.49983e-15 0 0)
(-1.67902e-14 0 0)
(-7.695e-15 0 0)
(1.38412e-14 0 0)
(8.71119e-15 0 0)
(-1.70742e-14 0 0)
(-1.64634e-14 0 0)
(-3.54274e-14 0 0)
(5.6059e-15 0 0)
(-6.67908e-14 0 0)
(1.01038e-14 0 0)
(-1.46371e-14 0 0)
(1.01464e-14 0 0)
(-4.33144e-14 0 0)
(2.59488e-14 0 0)
(-1.25979e-14 0 0)
(-1.58948e-14 0 0)
(-3.2344e-14 0 0)
(-3.1612e-14 0 0)
(-7.2056e-14 0 0)
(-1.02462e-14 0 0)
(-4.40395e-14 0 0)
(-5.24238e-14 0 0)
(-3.93357e-14 0 0)
(-4.37267e-14 0 0)
(-3.05533e-14 0 0)
(-9.39349e-15 0 0)
(-1.51488e-14 0 0)
(-4.22416e-14 0 0)
(-1.25127e-14 0 0)
(-3.72467e-14 0 0)
(1.10123e-15 0 0)
(-2.40732e-14 0 0)
(-4.5901e-14 0 0)
(-2.83862e-14 0 0)
(-5.66443e-14 0 0)
(-2.04496e-14 0 0)
(-7.9005e-14 0 0)
(-2.18495e-14 0 0)
(-1.03966e-13 0 0)
(5.53896e-16 0 0)
(-7.7996e-14 0 0)
(-2.1899e-14 0 0)
(-4.63629e-14 0 0)
(-3.07807e-14 0 0)
(-3.59179e-14 0 0)
(-3.40363e-15 0 0)
(-1.37915e-14 0 0)
(2.14015e-14 0 0)
(3.89732e-14 0 0)
(6.65792e-15 0 0)
(4.66186e-14 0 0)
(-1.83531e-14 0 0)
(6.65492e-14 0 0)
(4.16394e-15 0 0)
(7.44363e-14 0 0)
(3.1335e-14 0 0)
(5.95931e-14 0 0)
(4.15101e-14 0 0)
(8.93434e-14 0 0)
(2.83012e-14 0 0)
(4.93825e-14 0 0)
(2.80453e-14 0 0)
(3.32888e-14 0 0)
(3.10722e-14 0 0)
(5.89109e-14 0 0)
(4.8182e-14 0 0)
(5.79731e-14 0 0)
(5.0484e-14 0 0)
(1.8389e-14 0 0)
(3.82484e-14 0 0)
(1.76216e-14 0 0)
(1.2747e-14 0 0)
(9.20171e-15 0 0)
(2.15719e-14 0 0)
(2.49685e-14 0 0)
(-7.85852e-15 0 0)
(4.53609e-14 0 0)
(-1.90417e-15 0 0)
(1.63709e-14 0 0)
(-1.59157e-15 0 0)
(2.50394e-14 0 0)
(1.98961e-15 0 0)
(2.44995e-14 0 0)
(1.28467e-14 0 0)
(3.6401e-14 0 0)
(3.32534e-14 0 0)
(2.26095e-14 0 0)
(4.62351e-14 0 0)
(4.9276e-14 0 0)
(5.83782e-14 0 0)
(3.45894e-14 0 0)
(7.8529e-14 0 0)
(4.45228e-14 0 0)
(6.70893e-14 0 0)
(4.13535e-14 0 0)
(-4.67509e-15 0 0)
(8.43269e-14 0 0)
(3.37794e-14 0 0)
(6.94626e-14 0 0)
(4.12187e-14 0 0)
(9.61007e-14 0 0)
(4.67538e-14 0 0)
(4.65547e-14 0 0)
(1.95046e-14 0 0)
(4.26324e-14 0 0)
(1.71313e-14 0 0)
(3.52855e-14 0 0)
(3.52997e-14 0 0)
(-1.71239e-14 0 0)
(2.88905e-14 0 0)
(-1.72874e-14 0 0)
(3.17185e-14 0 0)
(-1.20222e-14 0 0)
(2.60767e-14 0 0)
(-4.23837e-14 0 0)
(1.34433e-14 0 0)
(-4.38118e-14 0 0)
(1.70243e-14 0 0)
(-5.0022e-14 0 0)
(-1.16389e-14 0 0)
(-7.54096e-14 0 0)
(9.55648e-15 0 0)
(-6.54621e-14 0 0)
(-4.39847e-15 0 0)
(-6.35579e-14 0 0)
(-2.47127e-14 0 0)
(-2.68939e-14 0 0)
(9.40031e-15 0 0)
(-1.29461e-14 0 0)
(-4.27248e-14 0 0)
(9.81948e-15 0 0)
(-3.02478e-14 0 0)
(-3.66568e-14 0 0)
(-4.32081e-14 0 0)
(-4.25403e-14 0 0)
(-8.5002e-14 0 0)
(-5.1273e-14 0 0)
(-9.3216e-14 0 0)
(-8.48602e-14 0 0)
(-8.22381e-14 0 0)
(-5.98918e-14 0 0)
(-6.23288e-14 0 0)
(-6.13695e-14 0 0)
(-3.13634e-14 0 0)
(-2.70077e-14 0 0)
(1.30595e-14 0 0)
(-2.78031e-14 0 0)
(1.08066e-13 0 0)
(1.06305e-13 0 0)
(2.11188e-13 0 0)
(3.55357e-13 0 0)
(6.17135e-13 0 0)
(1.05047e-12 0 0)
(1.74256e-12 0 0)
(2.79919e-12 0 0)
(4.61682e-12 0 0)
(7.42523e-12 0 0)
(1.20305e-11 0 0)
(1.93039e-11 0 0)
(3.09709e-11 0 0)
(4.93608e-11 0 0)
(7.84035e-11 0 0)
(1.23977e-10 0 0)
(1.95197e-10 0 0)
(3.06171e-10 0 0)
(4.78041e-10 0 0)
(7.43534e-10 0 0)
(1.15118e-09 0 0)
(1.77489e-09 0 0)
(2.72456e-09 0 0)
(4.16435e-09 0 0)
(6.33702e-09 0 0)
(9.60098e-09 0 0)
(1.44816e-08 0 0)
(2.1746e-08 0 0)
(3.25082e-08 0 0)
(4.83776e-08 0 0)
(7.16671e-08 0 0)
(1.05684e-07 0 0)
(1.5513e-07 0 0)
(2.26657e-07 0 0)
(3.29623e-07 0 0)
(4.7712e-07 0 0)
(6.87364e-07 0 0)
(9.85556e-07 0 0)
(1.40637e-06 0 0)
(1.99722e-06 0 0)
(2.82262e-06 0 0)
(3.96975e-06 0 0)
(5.55579e-06 0 0)
(7.73728e-06 0 0)
(1.07221e-05 0 0)
(1.47844e-05 0 0)
(2.02838e-05 0 0)
(2.76891e-05 0 0)
(3.76068e-05 0 0)
(5.08173e-05 0 0)
(6.83178e-05 0 0)
(9.13739e-05 0 0)
(0.000121581 0 0)
(0.000160937 0 0)
(0.000211926 0 0)
(0.000277614 0 0)
(0.000361759 0 0)
(0.000468934 0 0)
(0.000604664 0 0)
(0.000775571 0 0)
(0.000989534 0 0)
(0.00125586 0 0)
(0.00158544 0 0)
(0.00199096 0 0)
(0.00248704 0 0)
(0.00309039 0 0)
(0.00382001 0 0)
(0.00469728 0 0)
(0.00574607 0 0)
(0.00699286 0 0)
(0.00846671 0 0)
(0.0101993 0 0)
(0.012225 0 0)
(0.0145805 0 0)
(0.017305 0 0)
(0.0204398 0 0)
(0.0240282 0 0)
(0.0281151 0 0)
(0.0327471 0 0)
(0.0379715 0 0)
(0.0438367 0 0)
(0.0503914 0 0)
(0.0576843 0 0)
(0.065764 0 0)
(0.0746784 0 0)
(0.0844743 0 0)
(0.0951977 0 0)
(0.106893 0 0)
(0.119602 0 0)
(0.133367 0 0)
(0.148225 0 0)
(0.164214 0 0)
(0.181367 0 0)
(0.199717 0 0)
(0.219293 0 0)
(0.240123 0 0)
(0.262231 0 0)
(0.285641 0 0)
(0.310374 0 0)
(0.336448 0 0)
(0.36388 0 0)
(0.392686 0 0)
(0.422879 0 0)
(0.454471 0 0)
(0.487472 0 0)
(0.521892 0 0)
(0.557739 0 0)
(0.595021 0 0)
(0.633743 0 0)
(0.673912 0 0)
(0.715533 0 0)
(0.758609 0 0)
(0.803145 0 0)
(0.849145 0 0)
(0.896611 0 0)
(0.945547 0 0)
(0.995956 0 0)
(1.04784 0 0)
(1.1012 0 0)
(1.15604 0 0)
(1.21236 0 0)
(1.27017 0 0)
(1.32947 0 0)
(1.39025 0 0)
(1.45253 0 0)
(1.5163 0 0)
(1.58157 0 0)
(1.64834 0 0)
(1.71661 0 0)
(1.78638 0 0)
(1.85766 0 0)
(1.93045 0 0)
(2.00476 0 0)
(2.08058 0 0)
(2.15793 0 0)
(2.23679 0 0)
(2.31718 0 0)
(2.3991 0 0)
(2.48256 0 0)
(2.56755 0 0)
(2.65408 0 0)
(2.74216 0 0)
(2.83178 0 0)
(2.92296 0 0)
(3.01569 0 0)
(3.10999 0 0)
(3.20585 0 0)
(3.30328 0 0)
(3.40228 0 0)
(3.50286 0 0)
(3.60502 0 0)
(3.70877 0 0)
(3.81411 0 0)
(3.92105 0 0)
(4.02959 0 0)
(4.13974 0 0)
(4.2515 0 0)
(4.36488 0 0)
(4.47988 0 0)
(4.59651 0 0)
(4.71477 0 0)
(4.83467 0 0)
(4.95622 0 0)
(5.07941 0 0)
(5.20426 0 0)
(5.33077 0 0)
(5.45895 0 0)
(5.5888 0 0)
(5.72033 0 0)
(5.85354 0 0)
(5.98845 0 0)
(6.12505 0 0)
(6.26335 0 0)
(6.40336 0 0)
(6.54509 0 0)
(6.68854 0 0)
(6.83371 0 0)
(6.98063 0 0)
(7.12928 0 0)
(7.27968 0 0)
(7.43183 0 0)
(7.58574 0 0)
(7.74143 0 0)
(7.89888 0 0)
(8.05812 0 0)
(8.21915 0 0)
(8.38198 0 0)
(8.54661 0 0)
(8.71305 0 0)
(8.88131 0 0)
(9.0514 0 0)
(9.22332 0 0)
(9.39709 0 0)
(9.57271 0 0)
(9.75018 0 0)
(9.92953 0 0)
(10.1107 0 0)
(10.2939 0 0)
(10.4789 0 0)
(10.6658 0 0)
(10.8546 0 0)
(11.0453 0 0)
(11.238 0 0)
(11.4326 0 0)
(11.6292 0 0)
(11.8277 0 0)
(12.0282 0 0)
(12.2306 0 0)
(12.4351 0 0)
(12.6416 0 0)
(12.85 0 0)
(13.0605 0 0)
(13.2731 0 0)
(13.4876 0 0)
(13.7043 0 0)
(13.923 0 0)
(14.1437 0 0)
(14.3666 0 0)
(14.5916 0 0)
(14.8187 0 0)
(15.0479 0 0)
(15.2793 0 0)
(15.5128 0 0)
(15.7485 0 0)
(15.9863 0 0)
(16.2264 0 0)
(16.4687 0 0)
(16.7131 0 0)
(16.9599 0 0)
(17.2088 0 0)
(17.4601 0 0)
(17.7136 0 0)
(17.9694 0 0)
(18.2276 0 0)
(18.488 0 0)
(18.7509 0 0)
(19.0159 0 0)
(19.2836 0 0)
(19.5533 0 0)
(19.826 0 0)
(20.1004 0 0)
(20.3781 0 0)
(20.6572 0 0)
(20.94 0 0)
(21.224 0 0)
(21.512 0 0)
(21.8009 0 0)
(22.0942 0 0)
(22.3881 0 0)
(22.6867 0 0)
(22.9857 0 0)
(23.2898 0 0)
(23.5939 0 0)
(23.9036 0 0)
(24.213 0 0)
(24.5283 0 0)
(24.8431 0 0)
(25.1641 0 0)
(25.4844 0 0)
(25.8112 0 0)
(26.1371 0 0)
(26.4698 0 0)
(26.8015 0 0)
(27.1402 0 0)
(27.4779 0 0)
(27.8226 0 0)
(28.1664 0 0)
(28.5172 0 0)
(28.8675 0 0)
(29.2242 0 0)
(29.5814 0 0)
(29.9439 0 0)
(30.3085 0 0)
(30.6766 0 0)
(31.0491 0 0)
(31.4223 0 0)
(31.8036 0 0)
(32.1814 0 0)
(32.5717 0 0)
(32.9536 0 0)
(33.3529 0 0)
(33.738 0 0)
(34.1444 0 0)
(34.5301 0 0)
(34.9434 0 0)
(35.3237 0 0)
(35.7373 0 0)
(36.1159 0 0)
(36.5353 0 0)
(36.917 0 0)
(37.3456 0 0)
(37.732 0 0)
(38.1703 0 0)
(38.5605 0 0)
(39.0077 0 0)
(39.401 0 0)
(39.8565 0 0)
(40.2527 0 0)
(40.7165 0 0)
(41.1159 0 0)
(41.5881 0 0)
(41.9908 0 0)
(42.4717 0 0)
(42.8776 0 0)
(43.3672 0 0)
(43.7762 0 0)
(44.2745 0 0)
(44.6866 0 0)
(45.1936 0 0)
(45.6088 0 0)
(46.1245 0 0)
(46.5428 0 0)
(47.0673 0 0)
(47.4886 0 0)
(48.0219 0 0)
(48.4463 0 0)
(48.9884 0 0)
(49.4157 0 0)
(49.9667 0 0)
(50.397 0 0)
(50.9568 0 0)
(51.3901 0 0)
(51.9587 0 0)
(52.3951 0 0)
(52.9722 0 0)
(53.4118 0 0)
(53.9974 0 0)
(54.4401 0 0)
(55.0343 0 0)
(55.4801 0 0)
(56.0826 0 0)
(56.5317 0 0)
(57.1424 0 0)
(57.5946 0 0)
(58.2134 0 0)
(58.6688 0 0)
(59.2956 0 0)
(59.754 0 0)
(60.3887 0 0)
(60.8501 0 0)
(61.4925 0 0)
(61.9568 0 0)
(62.6068 0 0)
(63.0739 0 0)
(63.7311 0 0)
(64.2009 0 0)
(64.8653 0 0)
(65.3374 0 0)
(66.0087 0 0)
(66.483 0 0)
(67.161 0 0)
(67.6371 0 0)
(68.3215 0 0)
(68.7992 0 0)
(69.4895 0 0)
(69.9684 0 0)
(70.6644 0 0)
(71.144 0 0)
(71.8453 0 0)
(72.3249 0 0)
(73.031 0 0)
(73.51 0 0)
(74.2204 0 0)
(74.698 0 0)
(75.412 0 0)
(75.8873 0 0)
(76.6042 0 0)
(77.0759 0 0)
(77.795 0 0)
(78.2616 0 0)
(78.9821 0 0)
(79.4421 0 0)
(80.1634 0 0)
(80.6155 0 0)
(81.3369 0 0)
(81.7797 0 0)
(82.5004 0 0)
(82.9314 0 0)
(83.6502 0 0)
(84.0653 0 0)
(84.7833 0 0)
(85.1837 0 0)
(86.6695 0 0)
)
;

boundaryField
{
    sideLeft
    {
        type            symmetryPlane;
    }
    sideRight
    {
        type            calculated;
        value           uniform (86.6695 0 0);
    }
    topbottom
    {
        type            empty;
    }
    frontback
    {
        type            empty;
    }
}


// ************************************************************************* //
