/*--------------------------------*- C++ -*----------------------------------*\
| =========                 |                                                 |
| \\      /  F ield         | OpenFOAM: The Open Source CFD Toolbox           |
|  \\    /   O peration     | Version:  2.4.0                                 |
|   \\  /    A nd           | Web:      www.OpenFOAM.org                      |
|    \\/     M anipulation  |                                                 |
\*---------------------------------------------------------------------------*/
FoamFile
{
    version     2.0;
    format      ascii;
    class       volVectorField;
    location    "0.1";
    object      U.water;
}
// * * * * * * * * * * * * * * * * * * * * * * * * * * * * * * * * * * * * * //

dimensions      [0 1 -1 0 0 0 0];

internalField   nonuniform List<vector> 
1000
(
(-2.91321e-13 0 0)
(-4.1922e-13 0 0)
(-3.33955e-13 0 0)
(-2.70007e-13 0 0)
(-6.25277e-13 0 0)
(-8.66863e-13 0 0)
(-6.39488e-13 0 0)
(-7.31859e-13 0 0)
(-6.82121e-13 0 0)
(-5.18696e-13 0 0)
(-4.90274e-13 0 0)
(-3.4106e-13 0 0)
(-2.3448e-13 0 0)
(-5.68427e-14 0 0)
(-4.26332e-14 0 0)
(-1.91846e-13 0 0)
(-2.3448e-13 0 0)
(-2.20268e-13 0 0)
(-2.13169e-14 0 0)
(-1.70529e-13 0 0)
(9.23698e-14 0 0)
(3.76588e-13 0 0)
(8.45546e-13 0 0)
(1.02318e-12 0 0)
(8.2423e-13 0 0)
(7.38964e-13 0 0)
(9.66338e-13 0 0)
(9.02389e-13 0 0)
(8.2423e-13 0 0)
(1.03739e-12 0 0)
(8.81073e-13 0 0)
(7.88703e-13 0 0)
(7.53175e-13 0 0)
(7.10543e-13 0 0)
(9.45021e-13 0 0)
(1.1795e-12 0 0)
(1.23634e-12 0 0)
(8.1002e-13 0 0)
(7.67385e-13 0 0)
(5.25802e-13 0 0)
(4.76063e-13 0 0)
(6.89227e-13 0 0)
(6.18172e-13 0 0)
(3.55275e-14 0 0)
(-1.13687e-13 0 0)
(-2.34479e-13 0 0)
(-2.77112e-13 0 0)
(-4.26326e-14 0 0)
(-5.68433e-14 0 0)
(-1.84741e-13 0 0)
(-3.19744e-13 0 0)
(-2.84217e-13 0 0)
(-1.56319e-13 0 0)
(7.10539e-14 0 0)
(-8.52647e-14 0 0)
(-9.23709e-14 0 0)
(2.13164e-14 0 0)
(1.98952e-13 0 0)
(3.83693e-13 0 0)
(6.25277e-13 0 0)
(4.12115e-13 0 0)
(3.97903e-13 0 0)
(3.62377e-13 0 0)
(1.84741e-13 0 0)
(6.39487e-14 0 0)
(-1.42108e-13 0 0)
(-3.55274e-14 0 0)
(-1.84741e-13 0 0)
(-1.20792e-13 0 0)
(-6.39492e-14 0 0)
(4.26328e-14 0 0)
(2.77111e-13 0 0)
(3.69483e-13 0 0)
(5.40012e-13 0 0)
(4.1922e-13 0 0)
(1.98952e-13 0 0)
(2.84213e-14 0 0)
(1.20793e-13 0 0)
(1.5632e-13 0 0)
(2.34479e-13 0 0)
(2.41585e-13 0 0)
(-2.84218e-14 0 0)
(-2.13163e-13 0 0)
(-3.45541e-19 0 0)
(6.39493e-14 0 0)
(2.70006e-13 0 0)
(5.40013e-13 0 0)
(4.61852e-13 0 0)
(1.20792e-13 0 0)
(2.06058e-13 0 0)
(2.27373e-13 0 0)
(-4.26326e-14 0 0)
(-2.62901e-13 0 0)
(-3.83693e-13 0 0)
(-3.69482e-13 0 0)
(-5.89751e-13 0 0)
(-7.95807e-13 0 0)
(-4.90275e-13 0 0)
(-2.629e-13 0 0)
(4.26324e-14 0 0)
(-5.68432e-14 0 0)
(1.42107e-14 0 0)
(-1.49214e-13 0 0)
(-1.63425e-13 0 0)
(9.94758e-14 0 0)
(-5.6843e-14 0 0)
(-2.55796e-13 0 0)
(-1.27898e-13 0 0)
(-3.62376e-13 0 0)
(-6.537e-13 0 0)
(-3.12638e-13 0 0)
(1.42104e-14 0 0)
(1.42112e-14 0 0)
(-2.98428e-13 0 0)
(-5.04485e-13 0 0)
(-3.55271e-13 0 0)
(-2.77112e-13 0 0)
(-2.84217e-13 0 0)
(-4.26327e-14 0 0)
(2.55796e-13 0 0)
(3.55268e-14 0 0)
(-4.97377e-14 0 0)
(6.39484e-14 0 0)
(1.27898e-13 0 0)
(3.26849e-13 0 0)
(3.12639e-13 0 0)
(5.25801e-13 0 0)
(4.40537e-13 0 0)
(3.97903e-13 0 0)
(2.84218e-13 0 0)
(4.68957e-13 0 0)
(3.55272e-13 0 0)
(4.9738e-13 0 0)
(3.55272e-13 0 0)
(1.7053e-13 0 0)
(3.62377e-13 0 0)
(3.62377e-13 0 0)
(4.90275e-13 0 0)
(3.69482e-13 0 0)
(3.41061e-13 0 0)
(4.9738e-14 0 0)
(-9.94763e-14 0 0)
(-2.13157e-14 0 0)
(-2.27374e-13 0 0)
(-2.48689e-13 0 0)
(-2.13167e-14 0 0)
(-7.10537e-15 0 0)
(-3.55271e-14 0 0)
(1.06581e-13 0 0)
(-1.49214e-13 0 0)
(-1.98952e-13 0 0)
(-1.13687e-13 0 0)
(-8.52652e-14 0 0)
(-2.20268e-13 0 0)
(-5.40013e-13 0 0)
(-6.6791e-13 0 0)
(-8.66862e-13 0 0)
(-6.82121e-13 0 0)
(-8.10019e-13 0 0)
(-8.95284e-13 0 0)
(-1.14397e-12 0 0)
(-1.00897e-12 0 0)
(-7.6028e-13 0 0)
(-3.97904e-13 0 0)
(-3.83693e-13 0 0)
(-5.25802e-13 0 0)
(-7.17648e-13 0 0)
(-4.97381e-13 0 0)
(-4.9738e-13 0 0)
(-5.25802e-13 0 0)
(-4.54747e-13 0 0)
(-2.98428e-13 0 0)
(-4.05009e-13 0 0)
(-2.91323e-13 0 0)
(-1.98952e-13 0 0)
(-2.77112e-13 0 0)
(-3.48166e-13 0 0)
(-4.12115e-13 0 0)
(-4.83169e-13 0 0)
(-3.69482e-13 0 0)
(-4.76064e-13 0 0)
(-5.61329e-13 0 0)
(-7.31859e-13 0 0)
(-1.17239e-12 0 0)
(-1.1724e-12 0 0)
(-1.21503e-12 0 0)
(-1.00897e-12 0 0)
(-9.23704e-13 0 0)
(-4.90276e-13 0 0)
(-4.76063e-13 0 0)
(-1.42109e-13 0 0)
(-3.97903e-13 0 0)
(-2.70007e-13 0 0)
(-2.84213e-14 0 0)
(1.63425e-13 0 0)
(-4.97378e-14 0 0)
(-1.06581e-13 0 0)
(2.06057e-13 0 0)
(2.98428e-13 0 0)
(1.98952e-13 0 0)
(4.26321e-14 0 0)
(-1.91846e-13 0 0)
(1.8474e-13 0 0)
(7.10546e-14 0 0)
(-1.49214e-13 0 0)
(-2.84217e-13 0 0)
(-1.7053e-13 0 0)
(-2.55795e-13 0 0)
(-2.41584e-13 0 0)
(-2.77112e-13 0 0)
(-3.97904e-13 0 0)
(-4.54748e-13 0 0)
(-7.67386e-13 0 0)
(-6.18173e-13 0 0)
(-8.45545e-13 0 0)
(-8.31335e-13 0 0)
(-8.02913e-13 0 0)
(-8.31335e-13 0 0)
(-4.76064e-13 0 0)
(-2.62901e-13 0 0)
(-1.91847e-13 0 0)
(-1.35003e-13 0 0)
(1.77635e-13 0 0)
(8.5265e-14 0 0)
(-1.63425e-13 0 0)
(-1.13687e-13 0 0)
(-1.70531e-13 0 0)
(-1.56319e-13 0 0)
(-1.06582e-13 0 0)
(5.68436e-14 0 0)
(-7.10543e-14 0 0)
(-1.13687e-13 0 0)
(-2.13163e-13 0 0)
(-1.5632e-13 0 0)
(-3.26849e-13 0 0)
(-5.96857e-13 0 0)
(-8.66862e-13 0 0)
(-6.537e-13 0 0)
(-6.25277e-13 0 0)
(-6.25278e-13 0 0)
(-4.05009e-13 0 0)
(-1.49214e-13 0 0)
(2.1317e-14 0 0)
(-2.06058e-13 0 0)
(-1.63425e-13 0 0)
(-2.13163e-13 0 0)
(-2.55795e-13 0 0)
(1.06581e-13 0 0)
(-1.06581e-13 0 0)
(-2.4869e-13 0 0)
(7.10552e-15 0 0)
(2.06057e-13 0 0)
(4.97378e-14 0 0)
(7.81602e-14 0 0)
(1.42108e-13 0 0)
(-9.94754e-14 0 0)
(-1.35004e-13 0 0)
(-2.41584e-13 0 0)
(-2.41585e-13 0 0)
(-1.20792e-13 0 0)
(5.32907e-13 0 0)
(4.26326e-13 0 0)
(4.12115e-13 0 0)
(4.05009e-13 0 0)
(3.55272e-13 0 0)
(1.35003e-13 0 0)
(-9.94751e-14 0 0)
(-8.35681e-19 0 0)
(-1.35003e-13 0 0)
(2.20268e-13 0 0)
(-2.13162e-13 0 0)
(-1.63425e-13 0 0)
(-3.90798e-13 0 0)
(-3.33955e-13 0 0)
(-2.34479e-13 0 0)
(-1.77636e-13 0 0)
(-2.84216e-13 0 0)
(-1.42115e-14 0 0)
(-1.27897e-13 0 0)
(-4.97383e-14 0 0)
(2.84219e-14 0 0)
(-3.33955e-13 0 0)
(-2.91323e-13 0 0)
(-5.25801e-13 0 0)
(-5.11591e-13 0 0)
(-4.33431e-13 0 0)
(-4.40537e-13 0 0)
(-8.52651e-14 0 0)
(1.63425e-13 0 0)
(5.18696e-13 0 0)
(6.46594e-13 0 0)
(5.82645e-13 0 0)
(5.54223e-13 0 0)
(4.26326e-13 0 0)
(3.19744e-13 0 0)
(2.62901e-13 0 0)
(3.48166e-13 0 0)
(1.06581e-13 0 0)
(-1.42113e-14 0 0)
(-5.68429e-14 0 0)
(1.42104e-14 0 0)
(-1.56319e-13 0 0)
(-2.55795e-13 0 0)
(2.13159e-14 0 0)
(3.19745e-13 0 0)
(2.98427e-13 0 0)
(1.06582e-13 0 0)
(1.56319e-13 0 0)
(4.54747e-13 0 0)
(4.40537e-13 0 0)
(4.05009e-13 0 0)
(2.06058e-13 0 0)
(4.47642e-13 0 0)
(2.98428e-13 0 0)
(3.55271e-13 0 0)
(4.47642e-13 0 0)
(5.61329e-13 0 0)
(4.68958e-13 0 0)
(1.98952e-13 0 0)
(1.27897e-13 0 0)
(2.41585e-13 0 0)
(1.49214e-13 0 0)
(7.81594e-14 0 0)
(-2.13162e-13 0 0)
(-2.77112e-13 0 0)
(-3.05533e-13 0 0)
(-5.25802e-13 0 0)
(-4.33431e-13 0 0)
(-4.54747e-13 0 0)
(-5.68434e-13 0 0)
(-3.33955e-13 0 0)
(-8.52654e-14 0 0)
(6.39493e-14 0 0)
(4.1922e-13 0 0)
(5.04486e-13 0 0)
(6.60804e-13 0 0)
(5.54224e-13 0 0)
(5.32907e-13 0 0)
(4.47642e-13 0 0)
(5.82645e-13 0 0)
(6.18172e-13 0 0)
(4.26326e-13 0 0)
(3.69482e-13 0 0)
(5.68435e-13 0 0)
(8.02913e-13 0 0)
(7.60282e-13 0 0)
(7.81596e-13 0 0)
(7.95808e-13 0 0)
(5.47118e-13 0 0)
(5.40013e-13 0 0)
(4.68958e-13 0 0)
(-6.39488e-14 0 0)
(-9.23707e-14 0 0)
(7.10547e-14 0 0)
(5.68434e-13 0 0)
(9.45022e-13 0 0)
(1.23634e-12 0 0)
(1.13687e-12 0 0)
(1.08713e-12 0 0)
(9.30811e-13 0 0)
(8.95284e-13 0 0)
(9.30811e-13 0 0)
(9.37917e-13 0 0)
(9.73444e-13 0 0)
(8.2423e-13 0 0)
(8.52651e-13 0 0)
(5.89751e-13 0 0)
(3.12638e-13 0 0)
(2.4869e-13 0 0)
(3.48166e-13 0 0)
(3.2685e-13 0 0)
(4.33431e-13 0 0)
(5.47118e-13 0 0)
(6.75015e-13 0 0)
(9.0239e-13 0 0)
(9.80549e-13 0 0)
(8.59757e-13 0 0)
(7.88702e-13 0 0)
(4.33432e-13 0 0)
(3.26849e-13 0 0)
(4.12115e-13 0 0)
(4.40536e-13 0 0)
(8.52653e-14 0 0)
(9.23705e-14 0 0)
(1.20792e-13 0 0)
(7.10553e-14 0 0)
(1.42108e-13 0 0)
(2.1317e-14 0 0)
(2.48689e-13 0 0)
(3.05534e-13 0 0)
(3.05533e-13 0 0)
(3.48166e-13 0 0)
(3.05533e-13 0 0)
(3.41061e-13 0 0)
(6.46593e-13 0 0)
(3.90799e-13 0 0)
(3.05533e-13 0 0)
(2.20269e-13 0 0)
(2.13162e-13 0 0)
(4.47642e-13 0 0)
(4.83169e-13 0 0)
(4.9738e-13 0 0)
(8.81073e-13 0 0)
(8.02913e-13 0 0)
(7.60281e-13 0 0)
(7.95808e-13 0 0)
(7.74492e-13 0 0)
(1.02318e-12 0 0)
(8.66863e-13 0 0)
(6.60804e-13 0 0)
(6.60805e-13 0 0)
(8.02913e-13 0 0)
(7.67386e-13 0 0)
(7.03437e-13 0 0)
(6.25278e-13 0 0)
(5.96856e-13 0 0)
(1.42109e-13 0 0)
(3.55265e-14 0 0)
(-2.34478e-13 0 0)
(7.10532e-14 0 0)
(2.06058e-13 0 0)
(1.77635e-13 0 0)
(1.06582e-13 0 0)
(-1.27898e-13 0 0)
(-2.20268e-13 0 0)
(2.06058e-13 0 0)
(1.49214e-13 0 0)
(-9.94756e-14 0 0)
(-7.10546e-14 0 0)
(6.39492e-14 0 0)
(1.06581e-13 0 0)
(-1.35003e-13 0 0)
(-1.27897e-13 0 0)
(9.94757e-14 0 0)
(-9.23708e-14 0 0)
(-4.83169e-13 0 0)
(-4.61853e-13 0 0)
(-6.96331e-13 0 0)
(-5.47119e-13 0 0)
(-3.05533e-13 0 0)
(-1.63426e-13 0 0)
(-1.20792e-13 0 0)
(9.94758e-14 0 0)
(4.9738e-14 0 0)
(7.10544e-14 0 0)
(3.4106e-13 0 0)
(3.33955e-13 0 0)
(7.10499e-15 0 0)
(4.26328e-14 0 0)
(2.13162e-14 0 0)
(-2.84217e-14 0 0)
(2.13166e-14 0 0)
(-2.13167e-14 0 0)
(7.10543e-14 0 0)
(1.5632e-13 0 0)
(7.10526e-15 0 0)
(-1.57332e-19 0 0)
(5.68438e-14 0 0)
(7.81591e-14 0 0)
(-7.10534e-14 0 0)
(1.8474e-13 0 0)
(2.3448e-13 0 0)
(4.68957e-13 0 0)
(4.8317e-13 0 0)
(6.60804e-13 0 0)
(4.9738e-13 0 0)
(2.70006e-13 0 0)
(1.49214e-13 0 0)
(4.12114e-13 0 0)
(6.89227e-13 0 0)
(6.32383e-13 0 0)
(6.25278e-13 0 0)
(5.25801e-13 0 0)
(5.8975e-13 0 0)
(5.04485e-13 0 0)
(1.7053e-13 0 0)
(1.77636e-13 0 0)
(-3.55277e-14 0 0)
(4.97387e-14 0 0)
(2.70006e-13 0 0)
(2.13163e-13 0 0)
(-9.2371e-14 0 0)
(-5.32906e-13 0 0)
(1.42103e-14 0 0)
(-1.13687e-13 0 0)
(-7.81598e-14 0 0)
(-2.06057e-13 0 0)
(-8.52653e-14 0 0)
(1.42114e-14 0 0)
(1.91846e-13 0 0)
(-2.62901e-13 0 0)
(-5.47118e-13 0 0)
(-3.48166e-13 0 0)
(-9.94759e-14 0 0)
(1.03246e-19 0 0)
(4.26324e-14 0 0)
(3.19744e-13 0 0)
(4.54748e-13 0 0)
(7.03437e-13 0 0)
(6.89227e-13 0 0)
(8.73967e-13 0 0)
(7.31859e-13 0 0)
(7.24754e-13 0 0)
(6.39488e-13 0 0)
(3.90799e-13 0 0)
(1.56319e-13 0 0)
(7.10596e-15 0 0)
(3.55265e-14 0 0)
(-2.34478e-13 0 0)
(-4.61854e-13 0 0)
(-5.40012e-13 0 0)
(-3.2685e-13 0 0)
(-1.35003e-13 0 0)
(1.49214e-13 0 0)
(3.55273e-14 0 0)
(2.13163e-13 0 0)
(2.13163e-13 0 0)
(5.25802e-13 0 0)
(3.76587e-13 0 0)
(1.13687e-13 0 0)
(7.81592e-14 0 0)
(5.68442e-14 0 0)
(2.77111e-13 0 0)
(-2.34479e-13 0 0)
(5.6843e-14 0 0)
(-2.1316e-14 0 0)
(6.39486e-14 0 0)
(1.70531e-13 0 0)
(1.42104e-14 0 0)
(1.27898e-13 0 0)
(-4.26328e-14 0 0)
(-8.5265e-14 0 0)
(9.23705e-14 0 0)
(2.23272e-19 0 0)
(-2.20268e-13 0 0)
(-5.11591e-13 0 0)
(-3.33955e-13 0 0)
(-2.84218e-14 0 0)
(-2.62901e-13 0 0)
(-4.90275e-13 0 0)
(-6.03961e-13 0 0)
(-7.67386e-13 0 0)
(-7.95808e-13 0 0)
(-1.27187e-12 0 0)
(-1.3074e-12 0 0)
(-1.11555e-12 0 0)
(-7.60281e-13 0 0)
(-6.32383e-13 0 0)
(-2.55795e-13 0 0)
(-9.23703e-14 0 0)
(-1.42112e-14 0 0)
(2.98428e-13 0 0)
(4.33431e-13 0 0)
(2.62901e-13 0 0)
(3.2685e-13 0 0)
(3.48166e-13 0 0)
(3.19744e-13 0 0)
(2.13163e-13 0 0)
(-5.68434e-14 0 0)
(-1.4211e-14 0 0)
(-1.13686e-13 0 0)
(-2.06058e-13 0 0)
(-3.4106e-13 0 0)
(-2.41585e-13 0 0)
(-2.77112e-13 0 0)
(-5.68434e-13 0 0)
(-3.2685e-13 0 0)
(-1.91846e-13 0 0)
(3.55269e-14 0 0)
(2.4869e-13 0 0)
(2.48689e-13 0 0)
(3.05534e-13 0 0)
(2.13163e-13 0 0)
(1.98952e-13 0 0)
(-2.54528e-19 0 0)
(5.68436e-14 0 0)
(-2.13164e-14 0 0)
(-1.91847e-13 0 0)
(-3.55271e-13 0 0)
(-6.18173e-13 0 0)
(-6.53699e-13 0 0)
(-6.96332e-13 0 0)
(-8.02913e-13 0 0)
(-6.67911e-13 0 0)
(-3.48165e-13 0 0)
(8.52646e-14 0 0)
(-1.13686e-13 0 0)
(6.39483e-14 0 0)
(1.5632e-13 0 0)
(-7.10548e-14 0 0)
(-5.25801e-13 0 0)
(-6.89227e-13 0 0)
(-9.3081e-13 0 0)
(-7.17649e-13 0 0)
(-6.18172e-13 0 0)
(-8.02913e-13 0 0)
(-6.75015e-13 0 0)
(-5.11591e-13 0 0)
(-6.39489e-13 0 0)
(-7.17648e-13 0 0)
(-6.11067e-13 0 0)
(-5.47118e-13 0 0)
(-4.33431e-13 0 0)
(-4.40537e-13 0 0)
(-4.1922e-13 0 0)
(-3.05533e-13 0 0)
(1.13686e-13 0 0)
(2.06058e-13 0 0)
(2.20268e-13 0 0)
(5.04485e-13 0 0)
(7.53175e-13 0 0)
(1.22924e-12 0 0)
(1.66267e-12 0 0)
(2.47979e-12 0 0)
(3.63798e-12 0 0)
(5.57065e-12 0 0)
(9.05232e-12 0 0)
(1.45377e-11 0 0)
(2.32916e-11 0 0)
(3.7268e-11 0 0)
(6.07727e-11 0 0)
(9.96465e-11 0 0)
(1.6275e-10 0 0)
(2.64684e-10 0 0)
(4.28713e-10 0 0)
(6.91827e-10 0 0)
(1.11147e-09 0 0)
(1.77829e-09 0 0)
(2.83316e-09 0 0)
(4.49524e-09 0 0)
(7.10198e-09 0 0)
(1.1173e-08 0 0)
(1.75028e-08 0 0)
(2.7301e-08 0 0)
(4.23999e-08 0 0)
(6.55627e-08 0 0)
(1.00936e-07 0 0)
(1.54708e-07 0 0)
(2.36073e-07 0 0)
(3.58618e-07 0 0)
(5.4232e-07 0 0)
(8.16402e-07 0 0)
(1.22338e-06 0 0)
(1.82481e-06 0 0)
(2.70926e-06 0 0)
(4.00361e-06 0 0)
(5.88849e-06 0 0)
(8.6197e-06 0 0)
(1.25574e-05 0 0)
(1.82061e-05 0 0)
(2.62676e-05 0 0)
(3.77138e-05 0 0)
(5.38814e-05 0 0)
(7.65984e-05 0 0)
(0.00010835 0 0)
(0.000152491 0 0)
(0.000213529 0 0)
(0.000297473 0 0)
(0.000412287 0 0)
(0.000568456 0 0)
(0.000779689 0 0)
(0.0010638 0 0)
(0.00144374 0 0)
(0.00194895 0 0)
(0.00261681 0 0)
(0.00349454 0 0)
(0.00464128 0 0)
(0.00613054 0 0)
(0.00805299 0 0)
(0.0105196 0 0)
(0.0136649 0 0)
(0.017651 0 0)
(0.0226711 0 0)
(0.0289537 0 0)
(0.0367666 0 0)
(0.0464204 0 0)
(0.0582725 0 0)
(0.0727294 0 0)
(0.0902493 0 0)
(0.111343 0 0)
(0.136573 0 0)
(0.166554 0 0)
(0.201948 0 0)
(0.243457 0 0)
(0.291822 0 0)
(0.34781 0 0)
(0.412204 0 0)
(0.485794 0 0)
(0.56936 0 0)
(0.663662 0 0)
(0.769425 0 0)
(0.887323 0 0)
(1.01797 0 0)
(1.1619 0 0)
(1.31957 0 0)
(1.49133 0 0)
(1.67745 0 0)
(1.87807 0 0)
(2.09323 0 0)
(2.32289 0 0)
(2.56686 0 0)
(2.82488 0 0)
(3.09661 0 0)
(3.38159 0 0)
(3.67933 0 0)
(3.98923 0 0)
(4.31069 0 0)
(4.64303 0 0)
(4.98555 0 0)
(5.33755 0 0)
(5.6983 0 0)
(6.06709 0 0)
(6.44321 0 0)
(6.82596 0 0)
(7.21469 0 0)
(7.60875 0 0)
(8.00755 0 0)
(8.41053 0 0)
(8.81716 0 0)
(9.22695 0 0)
(9.63948 0 0)
(10.0543 0 0)
(10.4712 0 0)
(10.8896 0 0)
(11.3095 0 0)
(11.7304 0 0)
(12.1523 0 0)
(12.5749 0 0)
(12.998 0 0)
(13.4216 0 0)
(13.8455 0 0)
(14.2697 0 0)
(14.694 0 0)
(15.1184 0 0)
(15.5429 0 0)
(15.9674 0 0)
(16.3919 0 0)
(16.8164 0 0)
(17.2409 0 0)
(17.6654 0 0)
(18.0898 0 0)
(18.5143 0 0)
(18.9387 0 0)
(19.3631 0 0)
(19.7876 0 0)
(20.2121 0 0)
(20.6366 0 0)
(21.0612 0 0)
(21.486 0 0)
(21.9108 0 0)
(22.3357 0 0)
(22.7608 0 0)
(23.1861 0 0)
(23.6115 0 0)
(24.0372 0 0)
(24.4631 0 0)
(24.8892 0 0)
(25.3156 0 0)
(25.7423 0 0)
(26.1693 0 0)
(26.5966 0 0)
(27.0242 0 0)
(27.4522 0 0)
(27.8806 0 0)
(28.3094 0 0)
(28.7385 0 0)
(29.1681 0 0)
(29.5981 0 0)
(30.0286 0 0)
(30.4595 0 0)
(30.891 0 0)
(31.3229 0 0)
(31.7553 0 0)
(32.1882 0 0)
(32.6216 0 0)
(33.0556 0 0)
(33.4901 0 0)
(33.9252 0 0)
(34.3608 0 0)
(34.797 0 0)
(35.2338 0 0)
(35.6712 0 0)
(36.1091 0 0)
(36.5476 0 0)
(36.9868 0 0)
(37.4265 0 0)
(37.8669 0 0)
(38.3078 0 0)
(38.7494 0 0)
(39.1917 0 0)
(39.6345 0 0)
(40.078 0 0)
(40.5222 0 0)
(40.967 0 0)
(41.4125 0 0)
(41.8586 0 0)
(42.3055 0 0)
(42.753 0 0)
(43.2013 0 0)
(43.6503 0 0)
(44.1 0 0)
(44.5504 0 0)
(45.0017 0 0)
(45.4537 0 0)
(45.9065 0 0)
(46.3601 0 0)
(46.8145 0 0)
(47.2698 0 0)
(47.7259 0 0)
(48.183 0 0)
(48.6409 0 0)
(49.0997 0 0)
(49.5595 0 0)
(50.0202 0 0)
(50.4819 0 0)
(50.9445 0 0)
(51.4082 0 0)
(51.8729 0 0)
(52.3387 0 0)
(52.8055 0 0)
(53.2734 0 0)
(53.7425 0 0)
(54.2126 0 0)
(54.6839 0 0)
(55.1563 0 0)
(55.63 0 0)
(56.1048 0 0)
(56.5808 0 0)
(57.0581 0 0)
(57.5367 0 0)
(58.0165 0 0)
(58.4976 0 0)
(58.9801 0 0)
(59.4639 0 0)
(59.949 0 0)
(60.4356 0 0)
(60.9235 0 0)
(61.4129 0 0)
(61.9037 0 0)
(62.396 0 0)
(62.8898 0 0)
(63.3851 0 0)
(63.882 0 0)
(64.3804 0 0)
(64.8806 0 0)
(65.3821 0 0)
(65.8859 0 0)
(66.3904 0 0)
(66.8982 0 0)
(67.4054 0 0)
(67.9179 0 0)
(68.4273 0 0)
(68.9453 0 0)
(69.4563 0 0)
(69.9807 0 0)
(70.4929 0 0)
(71.0241 0 0)
(71.5378 0 0)
(72.0753 0 0)
(72.5919 0 0)
(73.1345 0 0)
(73.6554 0 0)
(74.2021 0 0)
(74.7282 0 0)
(75.2791 0 0)
(75.8106 0 0)
(76.3665 0 0)
(76.9025 0 0)
(77.4639 0 0)
(78.0053 0 0)
(78.5716 0 0)
(79.1193 0 0)
(79.6903 0 0)
(80.2447 0 0)
(80.821 0 0)
(81.3818 0 0)
(81.9639 0 0)
(82.5317 0 0)
(83.1188 0 0)
(83.6957 0 0)
(84.2863 0 0)
(84.8745 0 0)
(85.4664 0 0)
(86.0702 0 0)
(86.6586 0 0)
(87.2857 0 0)
(87.8623 0 0)
(88.5229 0 0)
(89.0775 0 0)
(89.7822 0 0)
(90.3049 0 0)
(91.0623 0 0)
(91.5487 0 0)
(92.3584 0 0)
(92.8163 0 0)
(93.6634 0 0)
(94.1105 0 0)
(94.9698 0 0)
(95.4218 0 0)
(96.2706 0 0)
(96.7227 0 0)
(97.5529 0 0)
(97.9727 0 0)
(98.7692 0 0)
(99.1605 0 0)
(99.9364 0 0)
(100.325 0 0)
(101.104 0 0)
(101.497 0 0)
(102.287 0 0)
(102.686 0 0)
(103.484 0 0)
(103.884 0 0)
(104.686 0 0)
(105.086 0 0)
(105.886 0 0)
(106.285 0 0)
(107.084 0 0)
(107.484 0 0)
(108.284 0 0)
(108.684 0 0)
(109.485 0 0)
(109.886 0 0)
(110.688 0 0)
(111.088 0 0)
(111.889 0 0)
(112.289 0 0)
(113.089 0 0)
(113.488 0 0)
(114.287 0 0)
(114.686 0 0)
(115.484 0 0)
(115.882 0 0)
(116.678 0 0)
(117.075 0 0)
(117.868 0 0)
(118.266 0 0)
(119.052 0 0)
(119.457 0 0)
(120.228 0 0)
(120.644 0 0)
(121.399 0 0)
(121.821 0 0)
(122.567 0 0)
(122.992 0 0)
(123.725 0 0)
(124.156 0 0)
(124.875 0 0)
(125.311 0 0)
(126.015 0 0)
(126.455 0 0)
(127.146 0 0)
(127.588 0 0)
(128.263 0 0)
(128.708 0 0)
(129.366 0 0)
(129.812 0 0)
(130.452 0 0)
(130.899 0 0)
(131.521 0 0)
(131.967 0 0)
(132.569 0 0)
(133.014 0 0)
(133.594 0 0)
(134.036 0 0)
(134.594 0 0)
(135.031 0 0)
(135.565 0 0)
(135.997 0 0)
(136.504 0 0)
(136.928 0 0)
(137.408 0 0)
(137.823 0 0)
(138.272 0 0)
(138.674 0 0)
(139.091 0 0)
(139.477 0 0)
(139.857 0 0)
(140.222 0 0)
(140.564 0 0)
(140.9 0 0)
(141.202 0 0)
(141.501 0 0)
(141.761 0 0)
(142.007 0 0)
(142.218 0 0)
(142.399 0 0)
(142.568 0 0)
(142.701 0 0)
(142.829 0 0)
(142.915 0 0)
(142.963 0 0)
(142.99 0 0)
(142.943 0 0)
(142.82 0 0)
(142.556 0 0)
(142.386 0 0)
(142.032 0 0)
(141.936 0 0)
(142.94 0 0)
)
;

boundaryField
{
    sideLeft
    {
        type            symmetryPlane;
    }
    sideRight
    {
        type            zeroGradient;
    }
    topbottom
    {
        type            empty;
    }
    frontback
    {
        type            empty;
    }
}


// ************************************************************************* //
