/*--------------------------------*- C++ -*----------------------------------*\
| =========                 |                                                 |
| \\      /  F ield         | OpenFOAM: The Open Source CFD Toolbox           |
|  \\    /   O peration     | Version:  2.4.0                                 |
|   \\  /    A nd           | Web:      www.OpenFOAM.org                      |
|    \\/     M anipulation  |                                                 |
\*---------------------------------------------------------------------------*/
FoamFile
{
    version     2.0;
    format      ascii;
    class       volVectorField;
    location    "0.1";
    object      Ur;
}
// * * * * * * * * * * * * * * * * * * * * * * * * * * * * * * * * * * * * * //

dimensions      [0 1 -1 0 0 0 0];

internalField   nonuniform List<vector> 
1000
(
(4.26326e-14 0 0)
(7.81597e-14 0 0)
(-2.51537e-21 0 0)
(-4.26326e-14 0 0)
(6.39488e-14 0 0)
(2.84217e-14 0 0)
(-9.23706e-14 0 0)
(6.39488e-14 0 0)
(3.55271e-14 0 0)
(-9.9476e-14 0 0)
(-2.84217e-14 0 0)
(1.42695e-22 0 0)
(1.42109e-14 0 0)
(4.26326e-14 0 0)
(1.42109e-14 0 0)
(-4.26326e-14 0 0)
(-4.9738e-14 0 0)
(-2.13163e-14 0 0)
(-1.42109e-14 0 0)
(-1.42109e-14 0 0)
(2.13163e-14 0 0)
(-1.42109e-14 0 0)
(-7.56749e-22 0 0)
(-2.84217e-14 0 0)
(-3.55271e-14 0 0)
(4.9738e-14 0 0)
(7.10543e-15 0 0)
(2.84217e-14 0 0)
(1.42109e-14 0 0)
(-2.13163e-14 0 0)
(1.42109e-14 0 0)
(-4.26326e-14 0 0)
(-7.10543e-15 0 0)
(1.42109e-14 0 0)
(2.12488e-21 0 0)
(2.84217e-14 0 0)
(-3.55271e-14 0 0)
(-2.13163e-14 0 0)
(4.9738e-14 0 0)
(3.55271e-14 0 0)
(7.10543e-15 0 0)
(-2.13163e-14 0 0)
(-3.55271e-14 0 0)
(6.39488e-14 0 0)
(4.26326e-14 0 0)
(-2.13163e-14 0 0)
(-3.55271e-14 0 0)
(-2.84217e-14 0 0)
(4.9738e-14 0 0)
(5.7646e-22 0 0)
(-1.42109e-14 0 0)
(3.55271e-14 0 0)
(-2.13163e-14 0 0)
(-7.10543e-15 0 0)
(2.13163e-14 0 0)
(-7.10543e-15 0 0)
(2.13163e-14 0 0)
(-2.13163e-14 0 0)
(-3.55271e-14 0 0)
(1.05567e-21 0 0)
(1.42109e-14 0 0)
(2.13163e-14 0 0)
(-2.84217e-14 0 0)
(-4.26326e-14 0 0)
(3.55271e-14 0 0)
(4.9738e-14 0 0)
(-7.03617e-22 0 0)
(-2.13163e-14 0 0)
(1.42109e-14 0 0)
(2.13163e-14 0 0)
(2.33726e-21 0 0)
(-2.13163e-14 0 0)
(-2.84217e-14 0 0)
(7.10543e-15 0 0)
(4.26326e-14 0 0)
(4.26326e-14 0 0)
(1.42109e-14 0 0)
(-3.80633e-22 0 0)
(4.26326e-14 0 0)
(1.49094e-21 0 0)
(-7.10543e-14 0 0)
(-2.13163e-14 0 0)
(7.10543e-15 0 0)
(-3.55271e-14 0 0)
(7.10543e-15 0 0)
(5.68434e-14 0 0)
(-1.42109e-14 0 0)
(-1.42109e-14 0 0)
(7.10543e-15 0 0)
(-3.07446e-22 0 0)
(-2.13163e-14 0 0)
(-3.55271e-14 0 0)
(7.10543e-15 0 0)
(-1.42109e-14 0 0)
(-2.84217e-14 0 0)
(2.84217e-14 0 0)
(4.26326e-14 0 0)
(2.13163e-14 0 0)
(7.10543e-15 0 0)
(2.13163e-14 0 0)
(-1.04648e-21 0 0)
(2.84217e-14 0 0)
(-7.10543e-15 0 0)
(-6.39488e-14 0 0)
(-1.42109e-14 0 0)
(-2.13163e-14 0 0)
(4.26326e-14 0 0)
(4.26326e-14 0 0)
(7.10543e-15 0 0)
(7.10543e-15 0 0)
(-2.13163e-14 0 0)
(-2.13163e-14 0 0)
(-2.13163e-14 0 0)
(4.26326e-14 0 0)
(1.42109e-14 0 0)
(-2.13163e-14 0 0)
(-2.84217e-14 0 0)
(-7.10543e-15 0 0)
(-1.6592e-21 0 0)
(-7.81597e-14 0 0)
(3.88568e-21 0 0)
(6.39488e-14 0 0)
(2.84217e-14 0 0)
(3.55271e-14 0 0)
(-2.13163e-14 0 0)
(-3.55271e-14 0 0)
(5.68434e-14 0 0)
(4.9738e-14 0 0)
(-2.13163e-14 0 0)
(-2.84217e-14 0 0)
(-2.13163e-14 0 0)
(-1.84167e-21 0 0)
(-1.42109e-14 0 0)
(-2.84217e-14 0 0)
(1.42109e-14 0 0)
(7.10543e-15 0 0)
(-2.13163e-14 0 0)
(-1.42109e-14 0 0)
(2.84217e-14 0 0)
(2.13163e-14 0 0)
(1.42109e-14 0 0)
(-8.11557e-22 0 0)
(1.28074e-21 0 0)
(-2.84217e-14 0 0)
(-7.10543e-14 0 0)
(-7.10543e-15 0 0)
(4.9738e-14 0 0)
(-1.42109e-14 0 0)
(1.42109e-14 0 0)
(4.9738e-14 0 0)
(-3.55271e-14 0 0)
(-2.13163e-14 0 0)
(3.04606e-22 0 0)
(2.13163e-14 0 0)
(4.26326e-14 0 0)
(2.84217e-14 0 0)
(-1.42109e-14 0 0)
(-2.68931e-21 0 0)
(-3.55271e-14 0 0)
(-7.10543e-15 0 0)
(9.23706e-14 0 0)
(7.10543e-15 0 0)
(-1.42109e-14 0 0)
(-1.42109e-14 0 0)
(-5.68434e-14 0 0)
(-2.84217e-14 0 0)
(7.10543e-15 0 0)
(-7.10543e-15 0 0)
(1.42109e-14 0 0)
(-1.42109e-14 0 0)
(-2.56984e-22 0 0)
(1.42109e-14 0 0)
(-7.10543e-15 0 0)
(2.13163e-14 0 0)
(2.13163e-14 0 0)
(4.9738e-14 0 0)
(2.84217e-14 0 0)
(-2.84217e-14 0 0)
(1.42109e-14 0 0)
(-1.42109e-14 0 0)
(-5.68434e-14 0 0)
(2.84217e-14 0 0)
(-2.13163e-14 0 0)
(-5.68434e-14 0 0)
(-7.10543e-15 0 0)
(-7.10543e-15 0 0)
(1.42109e-14 0 0)
(4.9738e-14 0 0)
(4.26326e-14 0 0)
(8.4063e-22 0 0)
(-7.10543e-15 0 0)
(-2.13163e-14 0 0)
(-7.10543e-15 0 0)
(-1.42109e-14 0 0)
(-7.10543e-15 0 0)
(7.10543e-14 0 0)
(2.05854e-22 0 0)
(-3.55271e-14 0 0)
(3.55271e-14 0 0)
(-7.10543e-15 0 0)
(-4.9738e-14 0 0)
(7.10543e-15 0 0)
(-3.55271e-14 0 0)
(7.10543e-15 0 0)
(5.68434e-14 0 0)
(2.13163e-14 0 0)
(-4.76217e-23 0 0)
(3.55271e-14 0 0)
(1.42109e-14 0 0)
(-4.26326e-14 0 0)
(-2.84217e-14 0 0)
(-7.10543e-15 0 0)
(4.9738e-14 0 0)
(-1.42109e-14 0 0)
(-1.42109e-14 0 0)
(2.13163e-14 0 0)
(7.10543e-15 0 0)
(3.55271e-14 0 0)
(-2.84217e-14 0 0)
(-7.81597e-14 0 0)
(1.42109e-14 0 0)
(8.52651e-14 0 0)
(5.68434e-14 0 0)
(-7.10543e-14 0 0)
(-7.81597e-14 0 0)
(7.10543e-15 0 0)
(-2.84217e-14 0 0)
(6.39488e-14 0 0)
(5.68434e-14 0 0)
(-4.26326e-14 0 0)
(4.9738e-14 0 0)
(7.10543e-15 0 0)
(-6.39488e-14 0 0)
(-5.68434e-14 0 0)
(-2.13163e-14 0 0)
(2.13163e-14 0 0)
(-2.84217e-14 0 0)
(2.84217e-14 0 0)
(4.26326e-14 0 0)
(7.10543e-15 0 0)
(7.10543e-15 0 0)
(-4.26326e-14 0 0)
(-2.13163e-14 0 0)
(7.10543e-15 0 0)
(1.42109e-14 0 0)
(5.68434e-14 0 0)
(2.84217e-14 0 0)
(-4.26326e-14 0 0)
(-1.42109e-14 0 0)
(-3.40027e-22 0 0)
(2.13163e-14 0 0)
(4.26326e-14 0 0)
(7.10543e-15 0 0)
(-1.42109e-14 0 0)
(-1.42109e-14 0 0)
(5.68434e-14 0 0)
(5.68434e-14 0 0)
(-2.84217e-14 0 0)
(-2.13163e-14 0 0)
(-2.13163e-14 0 0)
(-7.10543e-15 0 0)
(1.79906e-21 0 0)
(-1.42109e-14 0 0)
(3.55271e-14 0 0)
(-7.10543e-15 0 0)
(-7.10543e-15 0 0)
(-1.42109e-14 0 0)
(-7.10543e-14 0 0)
(-1.42109e-14 0 0)
(-2.84217e-14 0 0)
(-3.55271e-14 0 0)
(6.39488e-14 0 0)
(3.55271e-14 0 0)
(4.26326e-14 0 0)
(7.10543e-15 0 0)
(-5.68434e-14 0 0)
(2.84217e-14 0 0)
(2.84217e-14 0 0)
(1.43129e-21 0 0)
(-7.10543e-15 0 0)
(-1.42109e-14 0 0)
(-7.10543e-15 0 0)
(7.10543e-15 0 0)
(2.84217e-14 0 0)
(-3.55271e-14 0 0)
(4.26326e-14 0 0)
(4.26326e-14 0 0)
(-6.39488e-14 0 0)
(8.23757e-23 0 0)
(-3.55271e-14 0 0)
(-1.42109e-14 0 0)
(2.84217e-14 0 0)
(4.9738e-14 0 0)
(-2.84217e-14 0 0)
(-4.26326e-14 0 0)
(4.9738e-14 0 0)
(1.42109e-14 0 0)
(-3.55271e-14 0 0)
(-2.13163e-14 0 0)
(4.26326e-14 0 0)
(-3.73446e-22 0 0)
(-4.26326e-14 0 0)
(7.10543e-15 0 0)
(-7.10543e-15 0 0)
(1.42109e-14 0 0)
(1.42109e-14 0 0)
(-7.10543e-15 0 0)
(2.84217e-14 0 0)
(-5.58082e-22 0 0)
(7.10542e-15 0 0)
(-2.80862e-21 0 0)
(-1.42109e-14 0 0)
(-1.42109e-14 0 0)
(-7.10543e-15 0 0)
(1.42109e-14 0 0)
(2.13163e-14 0 0)
(4.9738e-14 0 0)
(7.10543e-15 0 0)
(-4.26326e-14 0 0)
(4.26326e-14 0 0)
(7.10543e-14 0 0)
(-8.52651e-14 0 0)
(-5.68434e-14 0 0)
(3.55271e-14 0 0)
(-1.42109e-14 0 0)
(-1.42109e-14 0 0)
(-1.42109e-14 0 0)
(-1.42109e-14 0 0)
(-2.13163e-14 0 0)
(-4.26326e-14 0 0)
(3.55271e-14 0 0)
(4.9738e-14 0 0)
(-3.55271e-14 0 0)
(1.42109e-14 0 0)
(2.13163e-14 0 0)
(2.13163e-14 0 0)
(-7.10543e-15 0 0)
(-3.55271e-14 0 0)
(3.55271e-14 0 0)
(2.13163e-14 0 0)
(-7.10543e-15 0 0)
(1.42109e-14 0 0)
(-3.55271e-14 0 0)
(-1.42109e-14 0 0)
(7.10543e-15 0 0)
(-2.84217e-14 0 0)
(5.60922e-22 0 0)
(-3.55271e-14 0 0)
(1.24984e-22 0 0)
(-5.68434e-14 0 0)
(-7.81597e-14 0 0)
(1.20792e-13 0 0)
(4.9738e-14 0 0)
(-2.84217e-14 0 0)
(2.84217e-14 0 0)
(4.9738e-14 0 0)
(-2.13163e-14 0 0)
(-5.68434e-14 0 0)
(2.13163e-14 0 0)
(-2.13163e-14 0 0)
(-3.55271e-14 0 0)
(7.10543e-15 0 0)
(-7.10543e-15 0 0)
(1.42109e-14 0 0)
(4.9738e-14 0 0)
(-2.84217e-14 0 0)
(-7.10543e-15 0 0)
(2.84217e-14 0 0)
(1.42109e-14 0 0)
(2.84217e-14 0 0)
(-2.84217e-14 0 0)
(-2.84217e-14 0 0)
(-1.42109e-14 0 0)
(2.13163e-14 0 0)
(-3.55271e-14 0 0)
(-4.26326e-14 0 0)
(4.9738e-14 0 0)
(-2.13163e-14 0 0)
(1.42109e-14 0 0)
(6.39488e-14 0 0)
(7.10543e-15 0 0)
(-7.10543e-14 0 0)
(-2.84217e-14 0 0)
(5.68434e-14 0 0)
(4.9738e-14 0 0)
(-4.9738e-14 0 0)
(-4.9738e-14 0 0)
(1.42109e-14 0 0)
(-7.10543e-15 0 0)
(-2.13163e-14 0 0)
(-7.10543e-15 0 0)
(2.13163e-14 0 0)
(2.13163e-14 0 0)
(-1.42109e-14 0 0)
(-7.10543e-14 0 0)
(-1.42109e-14 0 0)
(7.10543e-15 0 0)
(8.83906e-22 0 0)
(3.55271e-14 0 0)
(3.55271e-14 0 0)
(2.84217e-14 0 0)
(1.42109e-14 0 0)
(-4.26326e-14 0 0)
(-7.10543e-14 0 0)
(1.42109e-14 0 0)
(9.23706e-14 0 0)
(1.42109e-14 0 0)
(-4.9738e-14 0 0)
(-7.10543e-15 0 0)
(-1.42109e-14 0 0)
(-4.26326e-14 0 0)
(7.10543e-15 0 0)
(7.10543e-15 0 0)
(1.58468e-21 0 0)
(1.13738e-21 0 0)
(-4.9738e-14 0 0)
(-1.42109e-14 0 0)
(5.68434e-14 0 0)
(6.39488e-14 0 0)
(-1.42109e-14 0 0)
(-3.55271e-14 0 0)
(7.10543e-15 0 0)
(-4.9738e-14 0 0)
(-1.42109e-14 0 0)
(7.81597e-14 0 0)
(-8.66195e-22 0 0)
(-5.68434e-14 0 0)
(-2.13163e-14 0 0)
(7.10543e-15 0 0)
(-7.10543e-15 0 0)
(-7.10543e-15 0 0)
(4.26326e-14 0 0)
(1.40005e-21 0 0)
(1.42109e-14 0 0)
(-2.84217e-14 0 0)
(-6.39488e-14 0 0)
(2.13163e-14 0 0)
(2.84217e-14 0 0)
(3.55271e-14 0 0)
(-2.13163e-14 0 0)
(1.05851e-21 0 0)
(3.55271e-14 0 0)
(-2.84217e-14 0 0)
(5.68434e-14 0 0)
(-2.13163e-14 0 0)
(-8.52651e-14 0 0)
(4.9738e-14 0 0)
(4.26326e-14 0 0)
(-1.86439e-21 0 0)
(-7.10543e-15 0 0)
(2.84217e-14 0 0)
(2.13163e-14 0 0)
(-4.9738e-14 0 0)
(-4.26326e-14 0 0)
(7.81597e-14 0 0)
(2.84217e-14 0 0)
(-5.68434e-14 0 0)
(7.10543e-15 0 0)
(8.45644e-22 0 0)
(-2.13163e-14 0 0)
(3.59243e-22 0 0)
(-9.17325e-22 0 0)
(-1.24248e-21 0 0)
(6.83733e-22 0 0)
(-7.10543e-15 0 0)
(-2.84217e-14 0 0)
(2.84217e-14 0 0)
(6.39488e-14 0 0)
(-2.13163e-14 0 0)
(-4.9738e-14 0 0)
(-7.10543e-15 0 0)
(3.55271e-14 0 0)
(7.10543e-15 0 0)
(-3.55271e-14 0 0)
(-2.13163e-14 0 0)
(-1.42109e-14 0 0)
(-7.10543e-15 0 0)
(7.10543e-15 0 0)
(1.42109e-14 0 0)
(7.10543e-15 0 0)
(-7.10543e-15 0 0)
(-5.68434e-14 0 0)
(2.13163e-14 0 0)
(6.39488e-14 0 0)
(-2.36783e-21 0 0)
(2.13163e-14 0 0)
(-2.84217e-14 0 0)
(-2.13163e-14 0 0)
(4.26326e-14 0 0)
(-2.84217e-14 0 0)
(-1.51216e-22 0 0)
(5.68434e-14 0 0)
(-3.55271e-14 0 0)
(-4.9738e-14 0 0)
(2.13163e-14 0 0)
(7.10543e-15 0 0)
(-4.26326e-14 0 0)
(1.42109e-14 0 0)
(3.55271e-14 0 0)
(-1.42109e-14 0 0)
(-4.26326e-14 0 0)
(4.9738e-14 0 0)
(4.26326e-14 0 0)
(-5.68434e-14 0 0)
(-6.39488e-14 0 0)
(-2.13163e-14 0 0)
(9.23706e-14 0 0)
(4.26326e-14 0 0)
(-7.81597e-14 0 0)
(-5.68434e-14 0 0)
(-1.42109e-14 0 0)
(2.84217e-14 0 0)
(6.39488e-14 0 0)
(2.13163e-14 0 0)
(-1.21124e-21 0 0)
(2.13163e-14 0 0)
(4.87068e-22 0 0)
(-4.9738e-14 0 0)
(-7.10543e-15 0 0)
(3.55271e-14 0 0)
(2.84217e-14 0 0)
(-1.42109e-14 0 0)
(-7.10543e-15 0 0)
(5.68434e-14 0 0)
(-1.42109e-14 0 0)
(-5.68434e-14 0 0)
(-8.38457e-22 0 0)
(4.26326e-14 0 0)
(2.13163e-14 0 0)
(-7.10543e-15 0 0)
(2.84217e-14 0 0)
(-7.10543e-15 0 0)
(-3.55271e-14 0 0)
(-5.68434e-14 0 0)
(7.41879e-22 0 0)
(7.10543e-14 0 0)
(1.42109e-14 0 0)
(-7.10543e-15 0 0)
(-5.68434e-14 0 0)
(-7.81597e-14 0 0)
(2.84217e-14 0 0)
(7.81597e-14 0 0)
(-4.9738e-14 0 0)
(-3.55271e-14 0 0)
(6.39488e-14 0 0)
(7.10543e-15 0 0)
(7.10543e-15 0 0)
(-7.10543e-15 0 0)
(-3.55271e-14 0 0)
(-1.42109e-14 0 0)
(1.42109e-14 0 0)
(1.13687e-13 0 0)
(3.55271e-14 0 0)
(-9.23706e-14 0 0)
(-3.55271e-14 0 0)
(-7.10543e-15 0 0)
(2.13163e-14 0 0)
(1.42109e-14 0 0)
(-6.09879e-22 0 0)
(7.10543e-15 0 0)
(7.10543e-15 0 0)
(6.28257e-22 0 0)
(-1.42109e-14 0 0)
(5.6159e-22 0 0)
(7.10543e-15 0 0)
(-7.10543e-15 0 0)
(7.43384e-22 0 0)
(-2.13163e-14 0 0)
(-4.9738e-14 0 0)
(3.55271e-14 0 0)
(3.55271e-14 0 0)
(-5.68434e-14 0 0)
(-7.10543e-15 0 0)
(-3.55271e-14 0 0)
(-4.26326e-14 0 0)
(7.10543e-14 0 0)
(4.26326e-14 0 0)
(7.10543e-14 0 0)
(-7.10543e-15 0 0)
(-1.35003e-13 0 0)
(7.10543e-15 0 0)
(9.23706e-14 0 0)
(5.68434e-14 0 0)
(-7.10543e-15 0 0)
(-3.55271e-14 0 0)
(7.10543e-15 0 0)
(-2.84217e-14 0 0)
(-2.13163e-14 0 0)
(4.26326e-14 0 0)
(4.9738e-14 0 0)
(-1.0515e-21 0 0)
(-4.26326e-14 0 0)
(-2.13163e-14 0 0)
(4.26326e-14 0 0)
(7.10543e-15 0 0)
(-7.10543e-15 0 0)
(-4.9738e-14 0 0)
(-7.10543e-14 0 0)
(6.39488e-14 0 0)
(7.10543e-14 0 0)
(-1.42109e-14 0 0)
(-2.84217e-14 0 0)
(-5.08287e-22 0 0)
(-7.10543e-15 0 0)
(7.10543e-15 0 0)
(1.42109e-14 0 0)
(-2.84217e-14 0 0)
(-3.55271e-14 0 0)
(1.42109e-14 0 0)
(3.55271e-14 0 0)
(-7.10543e-15 0 0)
(-7.10542e-15 0 0)
(1.42109e-14 0 0)
(-5.68434e-14 0 0)
(-6.39488e-14 0 0)
(1.27898e-13 0 0)
(1.49214e-13 0 0)
(2.13163e-14 0 0)
(7.81598e-14 0 0)
(1.84741e-13 0 0)
(2.34479e-13 0 0)
(3.76588e-13 0 0)
(7.3186e-13 0 0)
(1.12266e-12 0 0)
(1.71952e-12 0 0)
(2.77112e-12 0 0)
(4.36274e-12 0 0)
(6.84253e-12 0 0)
(1.06653e-11 0 0)
(1.65272e-11 0 0)
(2.57004e-11 0 0)
(3.96767e-11 0 0)
(6.08367e-11 0 0)
(9.29036e-11 0 0)
(1.41277e-10 0 0)
(2.13859e-10 0 0)
(3.22089e-10 0 0)
(4.82729e-10 0 0)
(7.20051e-10 0 0)
(1.06897e-09 0 0)
(1.57915e-09 0 0)
(2.32108e-09 0 0)
(3.39444e-09 0 0)
(4.93925e-09 0 0)
(7.15031e-09 0 0)
(1.02978e-08 0 0)
(1.47536e-08 0 0)
(2.1026e-08 0 0)
(2.98058e-08 0 0)
(4.20248e-08 0 0)
(5.89313e-08 0 0)
(8.21856e-08 0 0)
(1.1398e-07 0 0)
(1.57187e-07 0 0)
(2.15543e-07 0 0)
(2.93867e-07 0 0)
(3.98325e-07 0 0)
(5.36739e-07 0 0)
(7.18948e-07 0 0)
(9.57211e-07 0 0)
(1.26666e-06 0 0)
(1.66579e-06 0 0)
(2.17697e-06 0 0)
(2.82695e-06 0 0)
(3.64739e-06 0 0)
(4.67523e-06 0 0)
(5.95308e-06 0 0)
(7.5293e-06 0 0)
(9.458e-06 0 0)
(1.17986e-05 0 0)
(1.46153e-05 0 0)
(1.79753e-05 0 0)
(2.19479e-05 0 0)
(2.66017e-05 0 0)
(3.20019e-05 0 0)
(3.82069e-05 0 0)
(4.52646e-05 0 0)
(5.32078e-05 0 0)
(6.20502e-05 0 0)
(7.17815e-05 0 0)
(8.23637e-05 0 0)
(9.37274e-05 0 0)
(0.000105769 0 0)
(0.000118351 0 0)
(0.0001313 0 0)
(0.000144411 0 0)
(0.000157449 0 0)
(0.000170159 0 0)
(0.000182269 0 0)
(0.000193503 0 0)
(0.000203588 0 0)
(0.000212268 0 0)
(0.000219309 0 0)
(0.000224514 0 0)
(0.000227729 0 0)
(0.000228848 0 0)
(0.000227818 0 0)
(0.00022464 0 0)
(0.000219369 0 0)
(0.000212112 0 0)
(0.000203017 0 0)
(0.000192275 0 0)
(0.000180104 0 0)
(0.000166743 0 0)
(0.000152446 0 0)
(0.000137471 0 0)
(0.00012207 0 0)
(0.000106486 0 0)
(9.09449e-05 0 0)
(7.56523e-05 0 0)
(6.07887e-05 0 0)
(4.65087e-05 0 0)
(3.29393e-05 0 0)
(2.01805e-05 0 0)
(8.30591e-06 0 0)
(-2.63549e-06 0 0)
(-1.26174e-05 0 0)
(-2.16338e-05 0 0)
(-2.96962e-05 0 0)
(-3.68307e-05 0 0)
(-4.30759e-05 0 0)
(-4.84796e-05 0 0)
(-5.30965e-05 0 0)
(-5.69862e-05 0 0)
(-6.02113e-05 0 0)
(-6.28354e-05 0 0)
(-6.49213e-05 0 0)
(-6.65299e-05 0 0)
(-6.77196e-05 0 0)
(-6.8545e-05 0 0)
(-6.9057e-05 0 0)
(-6.93017e-05 0 0)
(-6.93211e-05 0 0)
(-6.91526e-05 0 0)
(-6.8829e-05 0 0)
(-6.83792e-05 0 0)
(-6.7828e-05 0 0)
(-6.71968e-05 0 0)
(-6.65037e-05 0 0)
(-6.57636e-05 0 0)
(-6.49894e-05 0 0)
(-6.41914e-05 0 0)
(-6.33781e-05 0 0)
(-6.25565e-05 0 0)
(-6.17321e-05 0 0)
(-6.09095e-05 0 0)
(-6.00921e-05 0 0)
(-5.92828e-05 0 0)
(-5.84838e-05 0 0)
(-5.76967e-05 0 0)
(-5.69228e-05 0 0)
(-5.61632e-05 0 0)
(-5.54185e-05 0 0)
(-5.46893e-05 0 0)
(-5.39758e-05 0 0)
(-5.32783e-05 0 0)
(-5.2597e-05 0 0)
(-5.19317e-05 0 0)
(-5.12824e-05 0 0)
(-5.06491e-05 0 0)
(-5.00315e-05 0 0)
(-4.94294e-05 0 0)
(-4.88426e-05 0 0)
(-4.82708e-05 0 0)
(-4.77137e-05 0 0)
(-4.71711e-05 0 0)
(-4.66426e-05 0 0)
(-4.6128e-05 0 0)
(-4.56269e-05 0 0)
(-4.5139e-05 0 0)
(-4.46639e-05 0 0)
(-4.42013e-05 0 0)
(-4.37507e-05 0 0)
(-4.33118e-05 0 0)
(-4.28841e-05 0 0)
(-4.2467e-05 0 0)
(-4.206e-05 0 0)
(-4.16624e-05 0 0)
(-4.12736e-05 0 0)
(-4.08928e-05 0 0)
(-4.05193e-05 0 0)
(-4.01524e-05 0 0)
(-3.97911e-05 0 0)
(-3.94347e-05 0 0)
(-3.90825e-05 0 0)
(-3.87336e-05 0 0)
(-3.83873e-05 0 0)
(-3.80431e-05 0 0)
(-3.77003e-05 0 0)
(-3.73585e-05 0 0)
(-3.70173e-05 0 0)
(-3.66765e-05 0 0)
(-3.63358e-05 0 0)
(-3.59952e-05 0 0)
(-3.56546e-05 0 0)
(-3.53142e-05 0 0)
(-3.49742e-05 0 0)
(-3.46347e-05 0 0)
(-3.42959e-05 0 0)
(-3.39582e-05 0 0)
(-3.3622e-05 0 0)
(-3.32874e-05 0 0)
(-3.29549e-05 0 0)
(-3.26247e-05 0 0)
(-3.22972e-05 0 0)
(-3.19726e-05 0 0)
(-3.16512e-05 0 0)
(-3.13332e-05 0 0)
(-3.1019e-05 0 0)
(-3.07087e-05 0 0)
(-3.04026e-05 0 0)
(-3.01007e-05 0 0)
(-2.98033e-05 0 0)
(-2.95106e-05 0 0)
(-2.92226e-05 0 0)
(-2.89395e-05 0 0)
(-2.86612e-05 0 0)
(-2.83879e-05 0 0)
(-2.81195e-05 0 0)
(-2.78558e-05 0 0)
(-2.75968e-05 0 0)
(-2.73421e-05 0 0)
(-2.70916e-05 0 0)
(-2.6845e-05 0 0)
(-2.6602e-05 0 0)
(-2.63625e-05 0 0)
(-2.61264e-05 0 0)
(-2.58935e-05 0 0)
(-2.56637e-05 0 0)
(-2.54368e-05 0 0)
(-2.52123e-05 0 0)
(-2.49899e-05 0 0)
(-2.47691e-05 0 0)
(-2.45498e-05 0 0)
(-2.43313e-05 0 0)
(-2.41144e-05 0 0)
(-2.38976e-05 0 0)
(-2.36837e-05 0 0)
(-2.34681e-05 0 0)
(-2.32586e-05 0 0)
(-2.30424e-05 0 0)
(-2.28406e-05 0 0)
(-2.26202e-05 0 0)
(-2.24315e-05 0 0)
(-2.22026e-05 0 0)
(-2.20309e-05 0 0)
(-2.17954e-05 0 0)
(-2.16278e-05 0 0)
(-2.14139e-05 0 0)
(-2.11982e-05 0 0)
(-2.10809e-05 0 0)
(-2.07274e-05 0 0)
(-2.07923e-05 0 0)
(-2.02572e-05 0 0)
(-2.04742e-05 0 0)
(-1.98813e-05 0 0)
(-2.00534e-05 0 0)
(-1.96068e-05 0 0)
(-1.96241e-05 0 0)
(-1.92869e-05 0 0)
(-1.93661e-05 0 0)
(-1.91276e-05 0 0)
(-1.91555e-05 0 0)
(-1.79647e-05 0 0)
(-1.89428e-05 0 0)
(-1.82017e-05 0 0)
(-1.79617e-05 0 0)
(-1.79354e-05 0 0)
(-1.83801e-05 0 0)
(-1.7323e-05 0 0)
(-1.75301e-05 0 0)
(-1.73449e-05 0 0)
(-1.72517e-05 0 0)
(-1.70021e-05 0 0)
(-1.70152e-05 0 0)
(-1.6611e-05 0 0)
(-1.73412e-05 0 0)
(-1.58755e-05 0 0)
(-1.72517e-05 0 0)
(-1.51284e-05 0 0)
(-1.75679e-05 0 0)
(-1.3831e-05 0 0)
(-1.88546e-05 0 0)
(-1.20718e-05 0 0)
(-1.99661e-05 0 0)
(-9.6524e-06 0 0)
(-5.39908e-06 0 0)
(-2.46952e-05 0 0)
(-1.49289e-05 0 0)
(-1.74039e-05 0 0)
(-1.1307e-05 0 0)
(-1.64299e-05 0 0)
(-1.20183e-05 0 0)
(-1.49658e-05 0 0)
(-1.48388e-05 0 0)
(-1.48213e-05 0 0)
(-1.35487e-05 0 0)
(-1.69422e-05 0 0)
(-2.31865e-05 0 0)
(-1.65318e-05 0 0)
(2.2083e-06 0 0)
(1.86793e-06 0 0)
(-7.76786e-06 0 0)
(-6.96991e-06 0 0)
(-4.06483e-06 0 0)
(-1.6795e-06 0 0)
(-1.16522e-05 0 0)
(2.93059e-06 0 0)
(-7.28661e-06 0 0)
(7.17464e-07 0 0)
(1.53814e-06 0 0)
(-2.75907e-06 0 0)
(6.78247e-08 0 0)
(-1.80781e-06 0 0)
(3.48044e-07 0 0)
(-2.95898e-06 0 0)
(-3.66731e-06 0 0)
(1.71407e-07 0 0)
(-3.79647e-06 0 0)
(2.0521e-06 0 0)
(-1.04451e-06 0 0)
(1.36525e-06 0 0)
(1.76019e-07 0 0)
(9.00521e-07 0 0)
(5.48386e-07 0 0)
(9.3466e-07 0 0)
(-4.38511e-07 0 0)
(2.42136e-06 0 0)
(-2.97909e-08 0 0)
(3.40557e-06 0 0)
(1.41928e-06 0 0)
(4.09083e-06 0 0)
(3.63696e-06 0 0)
(1.92761e-06 0 0)
(8.43009e-06 0 0)
(-7.22811e-06 0 0)
(9.16749e-06 0 0)
(-2.78646e-06 0 0)
(8.334e-06 0 0)
(7.77002e-06 0 0)
(3.21639e-06 0 0)
(8.73421e-06 0 0)
(2.5019e-06 0 0)
(2.09604e-06 0 0)
(7.01896e-06 0 0)
(3.46955e-06 0 0)
(7.54847e-06 0 0)
(8.01681e-06 0 0)
(5.80258e-06 0 0)
(6.47794e-06 0 0)
(6.88573e-06 0 0)
(4.78184e-06 0 0)
(8.50379e-06 0 0)
(7.89333e-06 0 0)
(8.28701e-06 0 0)
(8.69675e-06 0 0)
(9.02823e-06 0 0)
(7.40921e-06 0 0)
(1.04439e-05 0 0)
(8.7227e-06 0 0)
(9.81743e-06 0 0)
(1.00161e-05 0 0)
(1.06396e-05 0 0)
(1.70962e-05 0 0)
(5.78177e-06 0 0)
(1.7423e-05 0 0)
(5.05767e-06 0 0)
(1.09969e-05 0 0)
(1.32768e-05 0 0)
(1.13349e-05 0 0)
(1.26555e-05 0 0)
(1.32709e-05 0 0)
(1.20021e-05 0 0)
(1.2561e-05 0 0)
(1.28723e-05 0 0)
(1.2826e-05 0 0)
(1.17144e-05 0 0)
(1.54389e-05 0 0)
(1.39645e-05 0 0)
(1.59596e-05 0 0)
(8.31134e-06 0 0)
(3.69969e-06 0 0)
(-1.53301e-06 0 0)
(1.11538e-05 0 0)
(4.22885e-05 0 0)
(5.4138e-05 0 0)
(4.35577e-05 0 0)
(-1.35237e-05 0 0)
(-4.54108e-05 0 0)
(-8.25727e-05 0 0)
(-8.93365e-05 0 0)
(-0.00046339 0 0)
(0.000751619 0 0)
(0.000126792 0 0)
(0.00370163 0 0)
(-0.00116638 0 0)
(0.000134522 0 0)
(-0.000885223 0 0)
(0.000269845 0 0)
(0.00113938 0 0)
)
;

boundaryField
{
    sideLeft
    {
        type            symmetryPlane;
    }
    sideRight
    {
        type            calculated;
        value           uniform (-0.427425 0 0);
    }
    topbottom
    {
        type            empty;
    }
    frontback
    {
        type            empty;
    }
}


// ************************************************************************* //
