/*--------------------------------*- C++ -*----------------------------------*\
| =========                 |                                                 |
| \\      /  F ield         | OpenFOAM: The Open Source CFD Toolbox           |
|  \\    /   O peration     | Version:  2.4.0                                 |
|   \\  /    A nd           | Web:      www.OpenFOAM.org                      |
|    \\/     M anipulation  |                                                 |
\*---------------------------------------------------------------------------*/
FoamFile
{
    version     2.0;
    format      ascii;
    class       surfaceScalarField;
    location    "0.02";
    object      phi;
}
// * * * * * * * * * * * * * * * * * * * * * * * * * * * * * * * * * * * * * //

dimensions      [0 3 -1 0 0 0 0];

internalField   nonuniform List<scalar> 
999
(
-6.28314e-13
-1.98228e-12
-9.93468e-13
-1.23957e-12
1.51693e-13
1.3376e-12
1.0798e-12
1.03648e-12
4.93597e-13
-1.42109e-13
-2.93427e-13
-8.16217e-13
-8.3685e-13
-4.8306e-13
1.13687e-13
-4.39014e-13
-1.3151e-13
3.56617e-13
7.15717e-14
-2.1836e-13
-2.12426e-13
-1.38209e-12
-1.59024e-12
-1.72019e-12
-3.39295e-12
-2.99208e-12
-2.50078e-12
7.40873e-13
1.98083e-12
2.64229e-12
1.6472e-12
7.32142e-13
8.269e-13
3.35949e-13
-1.0417e-12
6.35483e-15
-2.37382e-13
-2.84217e-13
3.95188e-13
8.71523e-13
2.6354e-13
-2.27374e-13
1.70355e-12
2.40595e-12
2.9472e-12
1.85407e-12
9.01824e-13
3.02231e-13
1.05368e-12
-5.72016e-13
-1.81084e-12
-1.08436e-12
-1.78018e-12
-1.58658e-12
-2.07007e-12
-9.40085e-13
-9.41407e-13
-1.63736e-12
-1.16067e-12
-1.02866e-12
-1.29358e-12
-1.50713e-12
-1.10917e-12
-3.35275e-14
9.72765e-14
1.43511e-12
2.01481e-12
1.83525e-12
7.48352e-13
2.70006e-13
7.58889e-13
1.239e-12
1.26137e-12
2.39634e-12
1.05324e-12
8.85885e-13
1.00225e-12
-6.17178e-13
-5.51235e-13
-5.79111e-13
-2.21972e-13
-3.83693e-13
1.71586e-12
7.60343e-13
3.12897e-13
1.19822e-12
5.78762e-13
4.55551e-13
7.83617e-13
-5.62e-14
7.37225e-14
1.11977e-13
5.61649e-13
1.57556e-12
1.15113e-12
1.59037e-12
1.13035e-12
2.3742e-12
1.30054e-12
1.60171e-12
1.35973e-12
1.34392e-12
1.94525e-12
1.29196e-12
1.17902e-12
1.56372e-12
1.16848e-12
9.3657e-13
-8.52651e-14
-8.76392e-13
-1.84965e-12
-2.01148e-12
-2.69829e-12
-1.82147e-12
-2.52166e-12
-3.16749e-12
-1.83069e-12
-2.95526e-12
-3.80227e-12
-3.79529e-12
-2.52039e-12
-2.87562e-12
-1.05739e-12
1.67854e-13
-3.83693e-13
-3.99408e-13
-2.98428e-13
-8.11276e-14
9.14124e-13
1.05654e-12
7.18675e-13
8.69529e-13
1.31831e-12
-5.74992e-13
-1.57767e-12
-2.77363e-12
-2.87949e-12
-2.30883e-12
-2.59609e-12
-1.82264e-12
-9.15436e-13
-5.58241e-13
-9.53741e-13
-1.79298e-12
-1.28761e-12
5.40012e-13
5.36733e-13
-1.00484e-12
-2.91444e-13
-3.85937e-13
1.0449e-12
1.95015e-12
2.03079e-12
2.86476e-12
1.37293e-12
7.10542e-14
-6.96332e-13
-1.04909e-12
-9.28758e-13
-8.13936e-13
-2.24044e-13
1.13317e-13
-6.21668e-13
2.04048e-14
-1.31739e-13
5.28611e-13
-8.27852e-13
-9.55252e-14
-3.83693e-13
-5.01943e-13
5.59394e-13
2.10723e-12
1.36593e-12
8.66282e-13
-1.31295e-12
-1.18976e-12
-1.13092e-13
1.00785e-12
8.18672e-13
-1.99141e-13
-3.86519e-13
-8.55204e-13
-8.00623e-13
-9.98206e-13
-9.44489e-13
-1.04093e-12
-7.81597e-13
-1.44643e-12
-9.2728e-13
4.53746e-14
-2.08694e-14
-6.66118e-13
-1.27898e-13
-9.27476e-14
4.24194e-13
2.0572e-12
1.59153e-12
2.2326e-12
8.33483e-13
9.07186e-13
5.82645e-13
1.54242e-12
9.10754e-13
-7.80934e-13
-1.1491e-12
-7.83741e-13
-3.69482e-13
-1.90012e-13
-1.7053e-13
1.22161e-13
7.08865e-13
-8.67375e-13
-1.51075e-12
-2.54142e-12
-1.92627e-12
-2.02087e-12
-3.20537e-12
-3.14028e-12
-2.38959e-12
-1.88012e-12
-7.90481e-13
1.66575e-13
1.31329e-12
9.17815e-13
1.17501e-12
1.85524e-12
9.78426e-13
5.85944e-13
5.51901e-13
4.22753e-13
9.59009e-13
1.82456e-12
1.58575e-12
9.96655e-13
1.49854e-12
1.56319e-13
3.71627e-13
1.57608e-13
3.65244e-13
1.68316e-12
9.40712e-13
1.16212e-12
1.46212e-12
1.49833e-12
9.40056e-13
1.32909e-12
1.66505e-12
1.80556e-12
2.72906e-12
2.33769e-12
2.1802e-12
1.49384e-12
3.70801e-13
-5.07125e-14
-1.76866e-14
-7.37849e-14
-1.10324e-16
1.77784e-14
-3.71173e-13
-3.49222e-13
-1.73492e-12
-1.08985e-12
-2.10497e-12
-2.31838e-12
-1.59982e-12
-1.80186e-12
-1.01468e-12
-1.48043e-12
-1.47809e-12
-9.90002e-13
-1.19081e-13
-4.54747e-13
-6.9789e-13
-1.27829e-12
-4.83104e-13
1.62799e-13
6.53951e-13
6.8612e-13
5.68435e-14
-2.41584e-13
-1.66559e-12
-2.03659e-12
-1.17266e-12
-8.86882e-13
-1.00813e-12
-7.08013e-13
1.27898e-13
1.12692e-13
7.69955e-13
4.04112e-13
-5.68436e-14
2.27453e-13
-2.55841e-13
-7.08997e-13
-1.98952e-13
-1.42014e-12
-9.33776e-13
-8.86586e-13
-2.64694e-13
-1.61045e-12
-1.63244e-12
3.2685e-13
3.14408e-13
1.02209e-12
1.16966e-12
2.17265e-12
2.38539e-12
2.15639e-12
2.54662e-12
1.25499e-12
9.29335e-13
-3.55271e-13
-1.5632e-13
-6.7845e-13
-1.54007e-13
9.10136e-13
5.4689e-13
5.78592e-13
-5.49525e-14
4.01376e-13
8.72521e-13
1.30015e-12
1.36847e-12
7.45605e-13
2.73417e-13
-8.42969e-13
2.55795e-13
4.28875e-13
2.36105e-13
2.04297e-12
1.45048e-12
1.37475e-12
1.6268e-12
1.95811e-12
5.25802e-13
1.65127e-13
1.17658e-12
1.42837e-12
9.22144e-13
1.62983e-12
2.02264e-12
2.59175e-12
2.6912e-12
1.86475e-12
1.88156e-12
1.63811e-12
1.71587e-12
1.18533e-12
1.88792e-13
6.74576e-13
2.73505e-13
-4.09116e-13
-1.30676e-12
-1.05608e-12
-7.01982e-13
-1.08465e-12
-9.9552e-13
-1.63748e-12
-2.2308e-12
-2.01547e-12
-1.17438e-12
-2.06633e-13
-1.98952e-13
-1.04016e-12
-9.63882e-13
-3.67855e-13
-5.45063e-13
-2.34957e-12
-3.15306e-12
-2.7607e-12
-2.12084e-12
-1.60954e-12
-1.16722e-12
-1.28391e-12
-1.10961e-12
-1.89017e-13
-7.10912e-13
-1.3524e-12
-4.68958e-13
-1.03527e-12
-9.94284e-16
1.61859e-12
1.41695e-12
6.60645e-13
6.22433e-13
3.23926e-13
5.45706e-13
1.45132e-12
3.88372e-13
1.06571e-12
1.46726e-12
1.07807e-12
2.55808e-13
-4.55599e-13
-9.71181e-13
-1.14518e-12
-9.29924e-13
-1.13305e-12
4.32284e-13
3.30765e-13
6.09505e-13
2.76762e-13
-4.99525e-13
-1.29155e-12
-8.04712e-13
-2.50487e-12
-2.19694e-12
-1.75034e-12
-1.54754e-12
-9.90819e-13
-1.99751e-12
-1.61377e-12
-1.40493e-12
3.83693e-13
1.11292e-12
2.84836e-13
1.1871e-12
-1.93207e-13
3.57334e-13
-9.0378e-15
4.07631e-13
3.00081e-13
1.13687e-13
1.95763e-12
7.72499e-13
7.29713e-13
1.2319e-12
6.11119e-14
-2.88225e-13
7.10542e-14
-8.29859e-13
-1.64062e-12
-1.77209e-12
-1.47991e-12
-2.12374e-12
-2.09061e-12
-2.09585e-12
-2.25379e-12
-2.14884e-12
-1.15041e-12
-3.15027e-14
-3.38189e-13
1.65287e-13
-2.19373e-13
3.97904e-13
-6.71281e-13
-3.03411e-13
-3.57271e-13
-1.74491e-12
-9.9279e-13
-6.92993e-13
-4.54747e-13
-1.4176e-13
-3.7387e-13
-3.45803e-13
3.36658e-13
1.06157e-12
1.59046e-12
2.64105e-12
2.02386e-12
1.35329e-12
1.15463e-12
-6.659e-13
-1.76556e-12
-2.11208e-12
-2.73398e-12
-2.82624e-12
-2.32255e-12
-3.50523e-12
-2.6594e-12
-1.90908e-12
-3.06013e-12
-3.79137e-12
-2.50577e-12
-3.36396e-12
-2.05768e-12
-1.14052e-12
-1.14268e-12
-8.28466e-13
-1.12892e-12
-1.32045e-13
-6.01407e-13
-1.0551e-12
-1.23161e-12
-1.5368e-12
-9.15788e-13
-9.9476e-14
-9.1689e-13
-1.51565e-13
1.41586e-13
3.55957e-13
1.60745e-12
9.28182e-13
8.17415e-13
4.68848e-13
9.30041e-13
9.47851e-13
1.52495e-12
1.01875e-12
9.18206e-13
-7.12831e-13
-9.47033e-13
3.55272e-13
9.19324e-13
1.90963e-12
1.34934e-12
1.56066e-12
5.00882e-13
6.6791e-13
1.33489e-12
1.31515e-12
1.15953e-12
1.76746e-12
-1.24313e-14
-1.51185e-13
-7.89217e-13
-1.6687e-13
-1.71019e-12
-1.32048e-12
-8.43696e-13
-2.83756e-14
-1.42109e-13
2.09148e-13
6.15242e-13
2.83245e-13
4.02115e-13
1.21631e-13
-3.11962e-14
-7.75578e-13
-1.61044e-13
-9.9476e-14
9.20146e-14
-1.52188e-14
4.97888e-13
6.14716e-13
2.78518e-12
3.51698e-12
2.16414e-12
1.81538e-12
7.46462e-13
5.97363e-13
1.23111e-12
-3.11593e-13
-1.45593e-12
-3.91281e-13
4.12565e-13
1.28887e-13
-8.5265e-14
-3.65219e-13
7.10542e-14
4.9738e-13
-2.54053e-14
-7.28012e-13
-4.60278e-13
1.61308e-12
1.22233e-12
1.74914e-12
2.08046e-12
2.31666e-12
1.83225e-12
1.55753e-12
7.76161e-13
1.39925e-12
-2.89091e-13
-1.3147e-13
-4.38933e-13
-1.05138e-12
-1.4252e-12
-1.81331e-12
-1.17248e-12
-6.79459e-13
-2.50535e-13
-1.0411e-12
-5.52498e-13
-2.88094e-13
2.10837e-13
-6.14498e-13
-2.05616e-12
-3.24019e-12
-2.32647e-12
-2.14109e-12
-1.88668e-12
-1.90596e-12
-1.40365e-12
-1.23752e-12
-4.65343e-13
7.01583e-13
2.01139e-13
-1.16116e-13
-3.4881e-13
-1.00908e-12
-1.27834e-12
-2.78499e-12
-2.12789e-12
-1.98812e-12
-4.57753e-13
-1.27496e-12
-1.05445e-12
-9.00318e-13
-4.21786e-13
-2.41585e-13
-3.04771e-13
-2.13225e-13
9.94759e-14
-3.1238e-13
-7.51965e-13
-7.55282e-13
-4.05804e-13
8.66972e-13
1.91421e-12
1.92022e-12
1.9973e-12
1.82176e-12
1.0708e-12
1.06825e-12
7.10782e-13
2.34947e-12
1.69699e-12
6.94636e-13
4.57131e-13
4.26326e-13
1.06868e-12
1.06189e-12
1.02986e-12
1.06581e-12
3.41521e-13
1.14121e-12
5.45159e-13
9.9476e-14
-1.24607e-13
9.70701e-13
8.42169e-13
1.20555e-13
-4.2306e-14
1.24007e-13
1.63079e-12
2.23659e-12
2.56893e-12
3.81655e-12
4.99576e-12
3.29492e-12
1.84294e-12
1.57718e-12
9.884e-13
8.75697e-13
6.1457e-13
7.06228e-13
3.31999e-13
4.77784e-13
9.65801e-13
9.57425e-13
3.2685e-13
1.00517e-12
1.0599e-12
2.45133e-12
2.98097e-12
3.4191e-12
1.63432e-12
9.94925e-13
1.24032e-12
1.5632e-13
-1.28775e-12
-1.34948e-12
-2.21153e-12
-1.69726e-12
-1.00876e-12
-6.17103e-13
-1.2368e-12
4.7614e-13
6.61396e-13
8.66076e-13
-1.98952e-13
1.73128e-12
1.26857e-12
4.76258e-13
-1.77817e-13
3.69578e-14
9.37577e-13
3.26849e-13
1.91828e-13
-1.53976e-13
2.13163e-13
-2.44796e-13
8.39267e-14
1.52345e-13
-1.39533e-13
3.70036e-14
-6.24423e-13
-4.25435e-13
-9.13702e-13
5.06361e-13
2.26408e-12
2.37831e-12
1.24117e-12
4.12115e-13
1.14758e-13
1.59892e-12
1.3684e-12
5.02609e-13
5.77887e-13
3.93957e-13
4.38347e-13
-3.83693e-13
-1.77815e-12
-8.52653e-14
-1.82861e-13
-1.10532e-12
-2.26248e-12
-2.4168e-12
-3.3798e-12
-3.08763e-12
-3.95433e-12
-2.78043e-12
-2.72433e-12
-2.51442e-12
-1.30007e-12
-1.63867e-12
-1.20836e-12
3.47459e-14
-5.82645e-13
-1.10298e-12
-8.77532e-13
-8.44817e-13
-6.26741e-13
2.1286e-13
-3.55271e-13
4.83169e-13
-1.69848e-12
-9.07636e-13
-1.2614e-12
-1.96549e-12
-2.25697e-12
-1.68408e-12
-9.18462e-13
1.13775e-13
1.33064e-12
7.08272e-13
7.87791e-13
6.11067e-13
2.57767e-13
1.14874e-12
1.13614e-12
1.28099e-12
9.54479e-14
3.19463e-13
1.01439e-13
2.7855e-13
1.42109e-13
7.49696e-13
-4.24008e-13
-1.56319e-13
-1.18007e-12
-1.37888e-12
-2.65763e-12
-2.01929e-12
-1.70581e-12
-1.69419e-12
-1.21828e-13
2.57824e-13
1.7298e-12
2.04959e-12
2.37158e-12
1.48064e-12
9.98858e-13
1.06968e-12
1.7724e-12
1.74484e-12
1.77448e-12
1.14732e-12
1.3661e-12
2.31336e-12
2.48443e-12
3.27532e-12
4.14225e-12
2.7541e-12
3.34831e-12
2.43733e-12
1.89182e-12
2.58132e-12
1.59202e-12
-9.9476e-14
-5.84912e-13
-1.20825e-12
-6.37478e-13
-2.84217e-13
-1.03315e-12
1.84741e-13
4.70205e-14
-2.96953e-13
-3.04986e-13
-9.73928e-13
-1.94292e-13
-1.14438e-12
-1.19437e-12
-1.78999e-12
-2.53751e-12
-2.26494e-12
-1.75733e-12
-3.84312e-12
-2.91228e-12
-3.54896e-12
-2.76446e-12
-1.64967e-12
-2.74795e-12
-2.5918e-12
-1.60267e-12
-1.61655e-12
-1.20834e-12
-8.55349e-13
-3.88474e-13
-1.69622e-13
-7.07594e-14
-3.4106e-13
-2.27374e-13
4.34651e-13
1.42107e-14
7.10541e-14
-1.015e-12
-1.71125e-12
-2.36416e-12
-7.63616e-13
-1.1297e-12
-8.06603e-13
-5.56467e-13
-2.41585e-13
-8.87196e-13
-1.2378e-12
-1.13773e-12
-2.56842e-13
-8.52738e-13
-5.25801e-13
-1.25308e-12
-6.94032e-13
-8.59333e-13
-7.66097e-13
-1.64185e-12
2.52304e-13
1.25889e-12
3.12639e-13
-1.13687e-13
-1.048e-12
-2.6003e-12
-1.87736e-12
-9.30019e-13
5.14689e-13
6.83704e-13
1.30294e-12
4.54464e-13
-6.46458e-13
-1.20441e-12
-8.31722e-13
-1.33338e-12
-9.83011e-13
-1.9363e-12
-1.8999e-12
-1.2222e-12
-2.14383e-12
-1.15108e-12
-1.60735e-12
-2.2407e-12
-1.3705e-12
-2.87056e-12
-1.90187e-12
-2.42682e-12
-1.39581e-12
-5.40093e-13
-4.64605e-13
-1.07951e-12
-2.3297e-12
-1.78251e-12
-2.24974e-12
-2.18251e-12
-3.40994e-12
-2.79193e-12
-2.5734e-12
-2.95035e-12
-3.33649e-12
-2.27459e-12
-2.86307e-12
-4.66984e-12
-4.97727e-12
-4.82415e-12
-5.3314e-12
-6.96198e-12
-7.55934e-12
-7.19156e-12
-8.03184e-12
-8.91974e-12
-8.14384e-12
-8.73831e-12
-7.55869e-12
-5.85455e-12
-3.97016e-12
-2.97453e-12
1.25733e-13
4.32856e-12
1.24161e-11
3.29277e-11
8.17192e-11
1.98111e-10
4.71673e-10
1.1111e-09
2.58197e-09
5.93346e-09
1.34872e-08
3.0306e-08
6.73268e-08
1.47839e-07
3.20797e-07
6.87737e-07
1.45631e-06
3.04519e-06
6.28627e-06
1.28077e-05
2.57471e-05
5.10551e-05
9.98324e-05
0.000192438
0.000365561
0.000684121
0.00126084
0.00228766
0.00408474
0.00717494
0.0123933
0.0210427
0.0351065
0.0575272
0.0925522
0.146137
0.226376
0.343913
0.512247
0.747842
1.06993
1.49989
2.06025
2.7731
3.65839
4.73191
6.00359
7.47621
9.14483
10.9971
13.0147
15.1748
17.4528
19.8244
22.2675
24.7635
27.2975
29.8588
32.4397
35.0353
37.6422
40.2585
42.8828
45.5144
48.1528
50.7978
53.449
56.1066
58.7704
61.4406
64.1173
66.8008
69.4912
72.1888
74.894
77.6071
80.3285
83.0587
85.7982
88.5472
91.3064
94.0762
96.8571
99.6495
102.454
105.271
108.1
110.943
113.8
116.67
119.555
122.454
125.366
128.294
131.237
134.196
137.171
140.162
143.17
146.191
149.228
152.276
155.331
158.402
161.456
)
;

boundaryField
{
    sideLeft
    {
        type            symmetryPlane;
        value           uniform 0;
    }
    sideRight
    {
        type            calculated;
        value           uniform 164.597;
    }
    topbottom
    {
        type            empty;
        value           nonuniform 0();
    }
    frontback
    {
        type            empty;
        value           nonuniform 0();
    }
}


// ************************************************************************* //
