/*--------------------------------*- C++ -*----------------------------------*\
| =========                 |                                                 |
| \\      /  F ield         | OpenFOAM: The Open Source CFD Toolbox           |
|  \\    /   O peration     | Version:  2.4.0                                 |
|   \\  /    A nd           | Web:      www.OpenFOAM.org                      |
|    \\/     M anipulation  |                                                 |
\*---------------------------------------------------------------------------*/
FoamFile
{
    version     2.0;
    format      ascii;
    class       surfaceScalarField;
    location    "0.02";
    object      phi.water;
}
// * * * * * * * * * * * * * * * * * * * * * * * * * * * * * * * * * * * * * //

dimensions      [0 3 -1 0 0 0 0];

internalField   nonuniform List<scalar> 
999
(
-5.7147e-13
-1.64122e-12
-1.33453e-12
-1.18272e-12
3.80064e-14
1.45129e-12
1.02296e-12
1.09332e-12
3.23066e-13
2.84217e-14
-8.05018e-13
-5.88843e-13
-8.93693e-13
-8.51558e-14
-5.68436e-14
-1.54797e-13
3.90203e-14
1.55569e-14
-4.21151e-14
6.58566e-14
-7.80861e-13
-1.21156e-12
-1.36287e-12
-2.00441e-12
-2.9382e-12
-3.73105e-12
-2.27341e-12
5.13499e-13
2.32189e-12
2.86966e-12
1.70405e-12
7.32142e-13
7.70057e-13
5.63323e-13
-1.21223e-12
1.20042e-13
-1.80539e-13
-5.11591e-13
8.49935e-13
9.28367e-13
-2.06772e-14
-5.68434e-14
1.70355e-12
2.00805e-12
2.9472e-12
1.68354e-12
1.01551e-12
8.70665e-13
8.26308e-13
-5.72016e-13
-1.86768e-12
-1.02752e-12
-2.0644e-12
-1.30237e-12
-2.01323e-12
-1.16746e-12
-8.84564e-13
-1.46683e-12
-9.90144e-13
-1.31287e-12
-1.46411e-12
-1.3366e-12
-1.2797e-12
8.01593e-14
9.72765e-14
1.37827e-12
1.95797e-12
2.06262e-12
9.75726e-13
4.26326e-14
9.29419e-13
1.18216e-12
1.37506e-12
2.3395e-12
8.82712e-13
1.45432e-12
9.45409e-13
-6.74021e-13
-1.06283e-12
-4.65425e-13
-3.92502e-13
-4.26325e-14
1.3748e-12
8.7403e-13
2.56054e-13
1.36875e-12
5.21918e-13
6.82925e-13
4.994e-13
1.71174e-13
-9.68078e-14
2.25664e-13
5.61649e-13
1.40503e-12
1.20797e-12
1.64721e-12
1.41457e-12
2.14683e-12
1.13001e-12
1.48802e-12
1.24605e-12
1.40076e-12
2.05894e-12
1.29196e-12
1.23586e-12
1.56372e-12
8.27423e-13
1.1071e-12
-1.42109e-13
-7.05862e-13
-2.02018e-12
-1.78411e-12
-2.81198e-12
-1.82147e-12
-2.74903e-12
-2.71275e-12
-2.22859e-12
-2.78473e-12
-3.68858e-12
-3.2837e-12
-2.69092e-12
-3.27353e-12
-8.30016e-13
-1.73207e-13
-4.26327e-14
-3.99408e-13
-2.98428e-13
-1.37971e-13
8.00438e-13
1.17023e-12
4.91301e-13
1.04006e-12
1.20463e-12
-5.18148e-13
-1.29345e-12
-2.94416e-12
-3.05002e-12
-2.47936e-12
-2.4824e-12
-1.53843e-12
-9.72279e-13
-7.85614e-13
-1.06743e-12
-1.62245e-12
-6.05485e-13
-3.69482e-13
5.36733e-13
-7.77463e-13
-4.61975e-13
-4.99624e-13
8.74368e-13
2.007e-12
2.20132e-12
2.46685e-12
1.82768e-12
1.27898e-13
-2.41585e-13
-1.73121e-12
-1.04244e-12
-6.43406e-13
-5.3514e-14
1.7016e-13
-9.05885e-13
1.90935e-13
1.52478e-13
1.30707e-13
-2.02574e-13
-5.50273e-13
-3.83693e-13
-3.31413e-13
7.29924e-13
1.82301e-12
1.47962e-12
7.52595e-13
-1.25611e-12
-1.01923e-12
-2.26779e-13
1.12154e-12
7.61828e-13
-4.26515e-13
-6.70736e-13
-7.98361e-13
-8.57466e-13
-7.13989e-13
-8.87646e-13
-1.43883e-12
-7.81597e-13
-1.21905e-12
-5.86219e-13
-4.66216e-13
3.5974e-14
-6.66118e-13
-1.27898e-13
-2.06434e-13
4.24194e-13
2.22773e-12
1.47784e-12
2.2326e-12
7.19796e-13
1.02087e-12
5.25802e-13
1.31505e-12
8.53911e-13
-5.5356e-13
-1.03541e-12
-1.29533e-12
-8.52651e-14
-3.60542e-13
-1.7053e-13
5.76908e-13
1.40431e-13
-6.96845e-13
-1.73812e-12
-1.91614e-12
-2.0968e-12
-2.47562e-12
-3.20537e-12
-2.96975e-12
-2.33275e-12
-1.88012e-12
-8.47324e-13
6.21322e-13
1.02908e-12
8.04128e-13
1.45923e-12
1.68471e-12
8.6474e-13
4.72257e-13
8.92962e-13
5.93283e-13
9.02165e-13
1.54034e-12
1.131e-12
1.50825e-12
1.04379e-12
5.54223e-13
1.44253e-13
3.84982e-13
2.51557e-13
1.8537e-12
1.11124e-12
1.04843e-12
1.51896e-12
1.38465e-12
4.85309e-13
1.61331e-12
2.1198e-12
1.69188e-12
2.67222e-12
2.16716e-12
2.12336e-12
1.437e-12
4.27645e-13
-2.21243e-13
3.23374e-13
-3.01159e-13
-1.10311e-16
2.45152e-13
-4.28017e-13
-5.19752e-13
-1.39385e-12
-1.03301e-12
-2.44603e-12
-1.92047e-12
-1.7135e-12
-1.80186e-12
-1.12837e-12
-1.3099e-12
-1.42124e-12
-1.50159e-12
1.08293e-13
-3.97904e-13
-5.84203e-13
-1.10776e-12
-7.67321e-13
1.05956e-13
6.53951e-13
6.8612e-13
-1.13687e-13
2.70006e-13
-1.94981e-12
-2.15027e-12
-1.34319e-12
-9.43726e-13
-7.23908e-13
-6.5117e-13
-2.70006e-13
4.53752e-13
9.40486e-13
6.20761e-15
1.13687e-13
5.1167e-13
-5.40058e-13
-2.68756e-14
-9.9476e-13
-1.42014e-12
-7.63246e-13
-8.86586e-13
-4.92068e-13
-1.09886e-12
-2.08719e-12
2.13163e-13
9.39685e-13
6.81027e-13
1.16966e-12
2.17265e-12
1.98749e-12
2.38377e-12
2.43294e-12
1.31183e-12
8.72492e-13
1.56319e-13
-4.9738e-13
-9.62667e-13
1.87053e-13
7.39605e-13
7.1742e-13
5.21749e-13
-2.25483e-13
2.87689e-13
9.86208e-13
1.01593e-12
1.65269e-12
7.45605e-13
4.60434e-14
-4.45065e-13
8.52652e-14
3.72032e-13
8.0454e-13
2.09981e-12
1.45048e-12
1.26107e-12
1.34258e-12
2.18548e-12
2.41585e-13
1.08284e-13
1.00605e-12
1.82628e-12
9.78988e-13
1.23192e-12
2.3637e-12
2.53491e-12
2.63435e-12
1.23947e-12
2.39315e-12
1.69495e-12
1.82956e-12
9.01112e-13
7.51055e-14
1.01564e-12
2.16661e-13
-3.52272e-13
-1.30676e-12
-1.22661e-12
-7.58825e-13
-9.14119e-13
-1.16605e-12
-1.46695e-12
-2.28764e-12
-2.186e-12
-8.33319e-13
-5.47694e-13
1.42109e-13
-1.15385e-12
-7.93352e-13
-7.08915e-13
-7.15593e-13
-2.06535e-12
-3.03938e-12
-3.10176e-12
-1.60925e-12
-2.06428e-12
-1.05353e-12
-1.34076e-12
-9.95919e-13
-2.4586e-13
-4.26695e-13
-1.46609e-12
-5.82645e-13
-7.51052e-13
-5.69428e-13
1.90281e-12
1.01905e-12
1.11539e-12
6.22433e-13
2.67083e-13
6.0255e-13
1.22395e-12
5.02059e-13
1.12255e-12
1.5241e-12
1.30544e-12
2.84342e-14
-4.55599e-13
-6.86964e-13
-1.31571e-12
-9.29924e-13
-9.05679e-13
9.12232e-14
4.44452e-13
5.52661e-13
2.76762e-13
-7.26899e-13
-1.29155e-12
-9.75243e-13
-2.6754e-12
-1.6285e-12
-1.6935e-12
-1.4907e-12
-1.38872e-12
-1.88382e-12
-1.67061e-12
-1.29124e-12
6.6791e-13
7.15019e-13
1.71149e-13
1.07341e-12
2.61541e-13
-1.54257e-13
1.04649e-13
2.93944e-13
-9.78226e-14
9.66338e-13
1.67341e-12
4.88282e-13
1.35499e-12
8.33999e-13
1.74799e-13
-2.88225e-13
-4.40537e-13
-4.31955e-13
-1.41324e-12
-1.82893e-12
-1.42307e-12
-2.29427e-12
-1.97692e-12
-2.15269e-12
-2.53801e-12
-1.69409e-12
-9.79877e-13
-8.83461e-14
-1.67659e-13
-3.46304e-13
1.78531e-13
-2.84217e-13
-5.00751e-13
-3.60255e-13
-1.29898e-13
-1.8586e-12
-1.16332e-12
-6.36149e-13
-3.97904e-13
8.56134e-14
-4.30713e-13
-8.0055e-13
4.50344e-13
1.40263e-12
1.41993e-12
2.35684e-12
2.25123e-12
1.35329e-12
8.13574e-13
-4.38527e-13
-1.65187e-12
-2.11208e-12
-2.67714e-12
-2.71256e-12
-2.60676e-12
-3.27786e-12
-2.6594e-12
-1.85224e-12
-3.2875e-12
-3.50715e-12
-2.50577e-12
-3.64818e-12
-2.05768e-12
-1.02684e-12
-1.19952e-12
-1.22637e-12
-7.31017e-13
-4.16262e-13
-7.15094e-13
-8.27729e-13
-1.23161e-12
-1.36627e-12
-8.58945e-13
7.10542e-14
-9.73734e-13
-4.35782e-13
-2.89442e-14
6.40174e-13
1.60745e-12
1.15556e-12
4.76355e-13
8.09909e-13
7.5951e-13
6.63634e-13
1.75233e-12
1.13243e-12
1.03189e-12
-9.40204e-13
-7.76502e-13
4.12115e-13
6.91951e-13
1.85279e-12
1.80409e-12
1.2196e-12
1.01247e-12
3.83693e-13
1.10752e-12
1.14462e-12
1.44375e-12
1.31271e-12
2.71786e-13
-3.74977e-14
-7.89217e-13
-5.64774e-13
-1.53966e-12
-1.49101e-12
-5.59479e-13
1.98998e-13
-3.12639e-13
9.54615e-14
8.42616e-13
2.26402e-13
5.72646e-13
-1.05743e-13
-4.291e-13
-6.05048e-13
-2.74731e-13
-4.26325e-14
5.46762e-13
-1.85749e-13
2.70514e-13
6.14716e-13
3.41046e-12
2.8917e-12
1.65255e-12
2.4975e-12
9.73836e-13
2.56303e-13
1.40164e-12
-1.41063e-13
-1.11487e-12
-3.91281e-13
3.55722e-13
1.85731e-13
-5.40012e-13
-1.94689e-13
-9.94761e-14
9.94761e-14
3.15655e-13
-5.00638e-13
-5.73965e-13
1.38571e-12
1.44971e-12
2.0902e-12
1.90993e-12
2.31666e-12
1.8891e-12
1.44384e-12
1.11722e-12
8.87655e-13
-1.18561e-13
-3.02e-13
-8.36837e-13
-1.41886e-13
-1.53889e-12
-1.75647e-12
-1.22932e-12
-1.13421e-12
-3.07378e-13
-6.43191e-13
-3.81967e-13
-3.44937e-13
4.03065e-14
-6.14498e-13
-1.82878e-12
-3.35388e-12
-2.61068e-12
-2.0274e-12
-1.60246e-12
-2.13334e-12
-1.17627e-12
-1.40805e-12
1.03091e-13
4.17366e-13
-2.53609e-13
1.68101e-13
1.62781e-13
-1.86173e-12
-8.80438e-13
-2.6713e-12
-2.18473e-12
-1.98812e-12
-4.57753e-13
-1.27496e-12
-1.45236e-12
-1.35507e-12
8.9805e-14
-2.98428e-13
-2.05537e-14
-2.13225e-13
4.26325e-14
-3.69223e-13
-6.95121e-13
-7.55282e-13
-3.48961e-13
6.96442e-13
2.19842e-12
1.74969e-12
2.05414e-12
1.76491e-12
9.00273e-13
9.54567e-13
1.05184e-12
2.00841e-12
1.86752e-12
4.67263e-13
5.13975e-13
8.2423e-13
8.98152e-13
1.28926e-12
8.59331e-13
8.95284e-13
8.53112e-13
1.02752e-12
3.74628e-13
-7.10543e-14
1.59611e-13
1.08439e-12
6.14796e-13
1.20555e-13
-4.2306e-14
5.78754e-13
1.34657e-12
2.17975e-12
2.62578e-12
4.10076e-12
4.76839e-12
3.18123e-12
1.67241e-12
1.3498e-12
1.27262e-12
8.18854e-13
6.71413e-13
8.19915e-13
3.88842e-13
5.34627e-13
3.97367e-13
1.41217e-12
9.9476e-14
1.11886e-12
1.23043e-12
2.39448e-12
2.69675e-12
3.64647e-12
1.80485e-12
1.10861e-12
5.01353e-13
4.40537e-13
-1.23091e-12
-1.34948e-12
-1.87047e-12
-1.98148e-12
-8.95072e-13
-2.76043e-13
-1.17995e-12
2.13932e-14
4.90865e-13
4.11328e-13
4.83169e-13
1.39022e-12
1.38226e-12
1.9204e-13
3.33774e-13
-1.98856e-14
1.22179e-12
9.94758e-14
7.81408e-14
-4.02888e-14
-7.10541e-14
-1.3111e-13
1.4077e-13
3.86577e-14
-1.39533e-13
9.3847e-14
-7.3811e-13
-7.09652e-13
-4.02111e-13
7.33735e-13
1.97986e-12
2.37831e-12
1.24117e-12
2.98428e-13
-5.57724e-14
2.11051e-12
1.53893e-12
2.18392e-13
5.77887e-13
1.66583e-13
4.38347e-13
-4.26325e-14
-1.49393e-12
-5.40013e-13
-1.26018e-13
-7.07412e-13
-2.48985e-12
-2.53049e-12
-3.20927e-12
-3.42869e-12
-3.67011e-12
-3.0078e-12
-2.49695e-12
-2.28704e-12
-1.4706e-12
-1.58182e-12
-1.15151e-12
-5.33688e-13
-3.55271e-13
-8.75605e-13
-1.04806e-12
-1.01535e-12
-4.56211e-13
1.56017e-13
-1.27898e-13
1.98952e-13
-1.52795e-12
-1.19185e-12
-1.14771e-12
-1.68127e-12
-2.25697e-12
-1.57039e-12
-1.08899e-12
-1.70442e-13
1.21695e-12
8.78802e-13
1.01516e-12
6.6791e-13
2.57767e-13
1.14874e-12
1.30667e-12
9.39929e-13
5.50195e-13
-2.48972e-13
2.71969e-13
1.0802e-13
3.12639e-13
4.08635e-13
-1.96634e-13
7.10544e-14
-1.46429e-12
-1.32203e-12
-2.88501e-12
-2.30351e-12
-1.59212e-12
-1.29628e-12
4.87025e-14
3.04501e-14
1.44559e-12
2.4475e-12
1.91684e-12
1.65117e-12
1.28308e-12
8.42306e-13
2.05661e-12
1.80168e-12
1.83133e-12
9.19942e-13
1.47978e-12
2.14283e-12
2.65496e-12
2.9911e-12
3.91487e-12
3.03831e-12
3.40515e-12
2.6647e-12
1.94866e-12
2.75185e-12
1.19412e-12
-1.56319e-13
-3.00695e-13
-1.26509e-12
-9.78539e-13
-3.97904e-13
-5.21559e-13
-4.26326e-14
4.70205e-14
-2.96953e-13
-1.34456e-13
-1.03077e-12
-8.76413e-13
-6.32791e-13
-9.10153e-13
-2.47211e-12
-1.91224e-12
-2.15125e-12
-2.15523e-12
-3.50206e-12
-2.91228e-12
-3.6058e-12
-2.65077e-12
-1.8202e-12
-2.97532e-12
-2.42127e-12
-1.54583e-12
-1.61655e-12
-1.49255e-12
-1.02588e-12
9.4303e-15
-2.83309e-13
-1.84446e-13
-3.97904e-13
-1.7053e-13
4.91494e-13
1.84741e-13
1.42107e-14
-1.015e-12
-1.65441e-12
-2.13679e-12
-1.38889e-12
-7.31794e-13
-7.4976e-13
-6.70154e-13
-1.84741e-13
-8.30353e-13
-1.2378e-12
-7.39829e-13
-7.68433e-13
-9.09581e-13
-1.42107e-14
-1.70783e-12
-8.07719e-13
-6.3196e-13
-8.79784e-13
-1.30079e-12
-4.8666e-13
1.37258e-12
3.12639e-13
2.84217e-13
-1.048e-12
-3.05504e-12
-1.59314e-12
-1.21424e-12
5.14689e-13
6.83704e-13
1.2461e-12
9.09212e-13
-5.89614e-13
-1.43178e-12
-1.11594e-12
-1.106e-12
-1.32407e-12
-1.59524e-12
-1.78621e-12
-1.56326e-12
-1.91646e-12
-1.20792e-12
-1.37998e-12
-2.07017e-12
-1.59788e-12
-3.15478e-12
-1.90187e-12
-2.31313e-12
-1.28213e-12
-7.10624e-13
-8.62508e-13
-6.81603e-13
-2.21601e-12
-2.00989e-12
-2.13606e-12
-2.01198e-12
-3.40994e-12
-2.67824e-12
-2.34603e-12
-3.29141e-12
-3.16596e-12
-2.44512e-12
-2.69254e-12
-4.72669e-12
-4.92042e-12
-4.76731e-12
-5.67246e-12
-6.50723e-12
-7.67303e-12
-7.30525e-12
-7.91815e-12
-8.8629e-12
-8.4849e-12
-8.45409e-12
-7.55869e-12
-5.85455e-12
-4.14069e-12
-2.86084e-12
-3.85858e-13
4.49909e-12
1.24161e-11
3.24161e-11
8.02981e-11
1.95383e-10
4.64909e-10
1.0957e-09
2.54781e-09
5.85757e-09
1.33186e-08
2.9941e-08
6.65427e-08
1.46177e-07
3.1732e-07
6.80558e-07
1.44169e-06
3.01582e-06
6.22811e-06
1.26942e-05
2.5529e-05
5.06421e-05
9.90631e-05
0.000191028
0.00036302
0.000679619
0.00125301
0.00227428
0.00406232
0.0071381
0.012334
0.0209492
0.0349624
0.0573102
0.092233
0.145679
0.225736
0.343042
0.511096
0.746365
1.06809
1.49768
2.05768
2.77023
3.65529
4.7287
6.00041
7.4732
9.14212
10.9948
13.0129
15.1735
17.4519
19.824
22.2674
24.7636
27.2978
29.8592
32.4403
35.0359
37.6428
40.2591
42.8834
45.5151
48.1535
50.7984
53.4497
56.1072
58.771
61.4412
64.1179
66.8013
69.4917
72.1893
74.8945
77.6076
80.3291
83.0593
85.7986
88.5477
91.3069
94.0767
96.8575
99.6499
102.454
105.271
108.101
110.944
113.8
116.671
119.555
122.454
125.367
128.294
131.237
134.196
137.171
140.162
143.17
146.192
149.228
152.277
155.334
158.41
161.462
)
;

boundaryField
{
    sideLeft
    {
        type            symmetryPlane;
        value           uniform 0;
    }
    sideRight
    {
        type            calculated;
        value           uniform 534.547;
    }
    topbottom
    {
        type            empty;
        value           nonuniform 0();
    }
    frontback
    {
        type            empty;
        value           nonuniform 0();
    }
}


// ************************************************************************* //
