/*--------------------------------*- C++ -*----------------------------------*\
| =========                 |                                                 |
| \\      /  F ield         | OpenFOAM: The Open Source CFD Toolbox           |
|  \\    /   O peration     | Version:  2.4.0                                 |
|   \\  /    A nd           | Web:      www.OpenFOAM.org                      |
|    \\/     M anipulation  |                                                 |
\*---------------------------------------------------------------------------*/
FoamFile
{
    version     2.0;
    format      ascii;
    class       volVectorField;
    location    "0.02";
    object      U.airMean;
}
// * * * * * * * * * * * * * * * * * * * * * * * * * * * * * * * * * * * * * //

dimensions      [0 1 -1 0 0 0 0];

internalField   nonuniform List<vector> 
1000
(
(-6.78923e-14 0 0)
(-5.73408e-14 0 0)
(-5.94369e-14 0 0)
(-4.41603e-14 0 0)
(-1.0008e-13 0 0)
(9.52121e-15 0 0)
(-3.52074e-14 0 0)
(1.06578e-15 0 0)
(2.48692e-15 0 0)
(-5.43566e-15 0 0)
(-6.2528e-15 0 0)
(-4.70023e-14 0 0)
(6.32375e-15 0 0)
(-1.45661e-14 0 0)
(3.13349e-14 0 0)
(3.13704e-14 0 0)
(1.81189e-14 0 0)
(4.95959e-14 0 0)
(4.04299e-14 0 0)
(-3.51712e-15 0 0)
(6.11066e-14 0 0)
(-1.5099e-14 0 0)
(2.01439e-14 0 0)
(-6.54054e-14 0 0)
(-4.98446e-14 0 0)
(-5.91882e-14 0 0)
(-4.61142e-14 0 0)
(-4.30944e-14 0 0)
(-1.15321e-13 0 0)
(-9.77003e-15 0 0)
(-6.45883e-14 0 0)
(-4.70735e-14 0 0)
(5.11584e-15 0 0)
(-2.58282e-14 0 0)
(1.56319e-14 0 0)
(-8.11439e-14 0 0)
(-6.92784e-15 0 0)
(-1.05658e-13 0 0)
(-4.99867e-14 0 0)
(-8.17479e-14 0 0)
(-8.24235e-15 0 0)
(-2.98783e-14 0 0)
(-1.46727e-14 0 0)
(-2.54374e-14 0 0)
(-1.88294e-14 0 0)
(-3.03047e-14 0 0)
(-3.95772e-14 0 0)
(-1.36069e-14 0 0)
(2.07123e-14 0 0)
(5.3646e-15 0 0)
(-3.13349e-14 0 0)
(2.40519e-14 0 0)
(-7.31854e-15 0 0)
(6.96687e-14 0 0)
(5.81579e-14 0 0)
(1.21041e-13 0 0)
(1.14859e-13 0 0)
(1.3884e-13 0 0)
(9.47864e-14 0 0)
(1.36673e-13 0 0)
(1.11591e-13 0 0)
(1.4456e-13 0 0)
(1.38627e-13 0 0)
(1.24807e-13 0 0)
(2.03215e-13 0 0)
(1.71312e-13 0 0)
(1.83e-13 0 0)
(1.43778e-13 0 0)
(1.17097e-13 0 0)
(1.64597e-13 0 0)
(4.40893e-14 0 0)
(1.05693e-13 0 0)
(1.79058e-14 0 0)
(5.64526e-14 0 0)
(7.90834e-14 0 0)
(7.53185e-15 0 0)
(1.34541e-13 0 0)
(2.83863e-14 0 0)
(8.38795e-14 0 0)
(5.24025e-14 0 0)
(5.11946e-14 0 0)
(7.73781e-14 0 0)
(2.07124e-14 0 0)
(7.10898e-14 0 0)
(5.22604e-14 0 0)
(8.15348e-14 0 0)
(2.19913e-14 0 0)
(2.52243e-14 0 0)
(-1.09779e-14 0 0)
(-7.53175e-14 0 0)
(2.23818e-15 0 0)
(-1.53122e-14 0 0)
(-3.37862e-14 0 0)
(2.55795e-14 0 0)
(6.24567e-14 0 0)
(9.09139e-14 0 0)
(1.49215e-14 0 0)
(6.7466e-14 0 0)
(4.22776e-15 0 0)
(-1.27543e-14 0 0)
(-6.4233e-14 0 0)
(-4.7713e-14 0 0)
(-7.40741e-14 0 0)
(-7.96163e-14 0 0)
(-1.3241e-13 0 0)
(-1.61116e-13 0 0)
(-1.19975e-13 0 0)
(-2.11564e-13 0 0)
(-1.98774e-13 0 0)
(-2.32454e-13 0 0)
(-2.42473e-13 0 0)
(-2.21618e-13 0 0)
(-2.51958e-13 0 0)
(-1.81828e-13 0 0)
(-2.0961e-13 0 0)
(-2.37783e-13 0 0)
(-1.44986e-13 0 0)
(-1.46478e-13 0 0)
(-8.00427e-14 0 0)
(-9.79483e-14 0 0)
(-8.95284e-14 0 0)
(-5.41789e-14 0 0)
(-5.8975e-14 0 0)
(-4.56879e-14 0 0)
(-2.20979e-14 0 0)
(-7.35413e-15 0 0)
(-3.07665e-14 0 0)
(-1.73372e-14 0 0)
(9.94739e-16 0 0)
(-3.471e-14 0 0)
(5.86199e-15 0 0)
(-1.31095e-14 0 0)
(-2.94875e-14 0 0)
(-2.59351e-15 0 0)
(-1.81188e-14 0 0)
(-3.64153e-14 0 0)
(-4.313e-14 0 0)
(-4.02878e-14 0 0)
(9.41462e-15 0 0)
(-2.60413e-14 0 0)
(4.30588e-14 0 0)
(1.41398e-14 0 0)
(1.35714e-14 0 0)
(9.41466e-15 0 0)
(-4.54743e-15 0 0)
(3.32889e-14 0 0)
(-2.45847e-14 0 0)
(-1.86873e-14 0 0)
(-1.94689e-14 0 0)
(-3.07665e-14 0 0)
(-6.17461e-14 0 0)
(-3.30758e-14 0 0)
(-7.03082e-14 0 0)
(-4.15668e-14 0 0)
(-1.71596e-14 0 0)
(-1.33227e-14 0 0)
(3.48521e-14 0 0)
(-4.12113e-15 0 0)
(-9.52129e-15 0 0)
(-2.58993e-14 0 0)
(-4.46221e-14 0 0)
(-1.42464e-14 0 0)
(1.77645e-16 0 0)
(6.94911e-14 0 0)
(7.45715e-14 0 0)
(6.34515e-14 0 0)
(1.14717e-13 0 0)
(9.56746e-14 0 0)
(8.73613e-14 0 0)
(4.97735e-14 0 0)
(6.31317e-14 0 0)
(4.00036e-14 0 0)
(5.06617e-14 0 0)
(1.66267e-14 0 0)
(-5.59907e-14 0 0)
(2.28438e-14 0 0)
(-8.9102e-14 0 0)
(-4.18155e-14 0 0)
(-1.28999e-13 0 0)
(-8.14637e-14 0 0)
(-7.62057e-14 0 0)
(-7.3932e-14 0 0)
(-7.48202e-14 0 0)
(-7.74136e-14 0 0)
(-2.52953e-14 0 0)
(-5.44631e-14 0 0)
(9.84093e-15 0 0)
(-1.1088e-13 0 0)
(1.54187e-14 0 0)
(-8.87823e-14 0 0)
(-2.37322e-14 0 0)
(-6.5512e-14 0 0)
(1.19015e-14 0 0)
(-2.80309e-14 0 0)
(-5.42144e-14 0 0)
(-2.22045e-14 0 0)
(-6.08224e-14 0 0)
(-4.20642e-14 0 0)
(-8.4448e-14 0 0)
(-2.55796e-14 0 0)
(-4.74643e-14 0 0)
(-7.15161e-14 0 0)
(-7.86215e-14 0 0)
(-2.37677e-14 0 0)
(-2.16716e-14 0 0)
(-1.02318e-14 0 0)
(2.11741e-14 0 0)
(-3.85824e-14 0 0)
(1.99663e-14 0 0)
(1.75504e-14 0 0)
(8.65441e-14 0 0)
(5.70922e-14 0 0)
(1.21219e-13 0 0)
(1.19407e-13 0 0)
(1.1763e-13 0 0)
(1.15072e-13 0 0)
(6.57963e-14 0 0)
(9.19086e-14 0 0)
(9.34374e-15 0 0)
(1.06119e-13 0 0)
(5.94724e-14 0 0)
(5.46408e-14 0 0)
(4.47642e-14 0 0)
(4.61853e-14 0 0)
(5.22249e-15 0 0)
(5.09459e-14 0 0)
(6.67555e-14 0 0)
(4.42668e-14 0 0)
(1.08749e-13 0 0)
(6.52989e-14 0 0)
(4.28457e-14 0 0)
(1.41043e-14 0 0)
(-3.0873e-14 0 0)
(4.87432e-14 0 0)
(-9.237e-15 0 0)
(4.39115e-14 0 0)
(-2.52953e-14 0 0)
(-7.42516e-15 0 0)
(-2.30571e-14 0 0)
(-6.12843e-14 0 0)
(-7.21205e-15 0 0)
(-7.13385e-14 0 0)
(-9.88365e-14 0 0)
(-2.43361e-14 0 0)
(-4.37339e-14 0 0)
(-4.29523e-14 0 0)
(-3.67351e-14 0 0)
(-1.0445e-14 0 0)
(-4.26327e-15 0 0)
(1.9682e-14 0 0)
(-8.30979e-14 0 0)
(2.06046e-15 0 0)
(-9.1056e-14 0 0)
(-1.23777e-13 0 0)
(-9.58878e-14 0 0)
(-1.28217e-13 0 0)
(-6.59739e-14 0 0)
(-7.96163e-14 0 0)
(-2.46914e-14 0 0)
(-1.3376e-13 0 0)
(-1.56329e-15 0 0)
(-1.09424e-13 0 0)
(-5.72698e-14 0 0)
(-8.7006e-14 0 0)
(-1.26406e-13 0 0)
(-7.23333e-14 0 0)
(-1.16422e-13 0 0)
(-9.50706e-14 0 0)
(-1.06333e-13 0 0)
(-1.2065e-13 0 0)
(-1.3614e-13 0 0)
(-1.0278e-13 0 0)
(-9.22995e-14 0 0)
(-9.04876e-14 0 0)
(-4.56169e-14 0 0)
(-3.38929e-14 0 0)
(-4.78905e-14 0 0)
(5.42499e-14 0 0)
(1.02674e-14 0 0)
(4.11759e-14 0 0)
(4.16378e-14 0 0)
(9.57456e-14 0 0)
(5.8975e-14 0 0)
(2.46915e-14 0 0)
(1.31095e-13 0 0)
(4.78551e-14 0 0)
(1.05231e-13 0 0)
(2.74981e-14 0 0)
(7.29727e-14 0 0)
(5.73763e-14 0 0)
(6.70042e-14 0 0)
(5.7021e-14 0 0)
(2.45848e-14 0 0)
(2.67164e-14 0 0)
(5.43567e-15 0 0)
(6.78924e-14 0 0)
(3.87602e-14 0 0)
(1.15037e-13 0 0)
(8.82494e-14 0 0)
(4.50485e-14 0 0)
(9.86233e-14 0 0)
(8.61178e-14 0 0)
(1.41469e-13 0 0)
(1.33831e-13 0 0)
(7.74137e-14 0 0)
(1.65912e-13 0 0)
(8.18901e-14 0 0)
(1.21823e-13 0 0)
(4.70024e-14 0 0)
(5.87974e-14 0 0)
(6.76437e-14 0 0)
(5.01999e-14 0 0)
(8.2494e-14 0 0)
(4.66827e-14 0 0)
(7.59925e-14 0 0)
(5.17631e-14 0 0)
(5.65592e-14 0 0)
(8.32401e-14 0 0)
(8.65086e-14 0 0)
(8.23519e-14 0 0)
(7.21911e-14 0 0)
(5.77672e-14 0 0)
(1.2708e-13 0 0)
(3.20811e-14 0 0)
(6.98108e-14 0 0)
(1.38556e-14 0 0)
(-1.12976e-14 0 0)
(8.7041e-15 0 0)
(-1.65912e-14 0 0)
(-1.65911e-14 0 0)
(2.13158e-16 0 0)
(-8.41992e-15 0 0)
(-2.43361e-14 0 0)
(1.53477e-14 0 0)
(-4.33786e-14 0 0)
(5.00932e-14 0 0)
(-2.59347e-15 0 0)
(-7.4962e-15 0 0)
(1.38556e-14 0 0)
(4.31654e-14 0 0)
(2.04992e-14 0 0)
(8.24939e-14 0 0)
(1.61649e-14 0 0)
(3.01626e-14 0 0)
(6.11422e-14 0 0)
(1.7586e-14 0 0)
(7.87281e-14 0 0)
(-1.96109e-14 0 0)
(6.78212e-14 0 0)
(-2.22755e-14 0 0)
(5.15498e-14 0 0)
(-2.1636e-14 0 0)
(3.42126e-14 0 0)
(3.01271e-14 0 0)
(9.6243e-14 0 0)
(8.02913e-14 0 0)
(-3.04467e-14 0 0)
(4.46931e-14 0 0)
(-2.09965e-14 0 0)
(9.52123e-15 0 0)
(-2.03215e-14 0 0)
(1.96465e-14 0 0)
(-1.02318e-14 0 0)
(3.36442e-14 0 0)
(7.26529e-14 0 0)
(3.0731e-14 0 0)
(2.49756e-14 0 0)
(3.43192e-14 0 0)
(2.04636e-14 0 0)
(3.04823e-14 0 0)
(7.7982e-14 0 0)
(9.76641e-14 0 0)
(7.29017e-14 0 0)
(8.40216e-14 0 0)
(3.67351e-14 0 0)
(1.05835e-13 0 0)
(5.23315e-14 0 0)
(8.34887e-14 0 0)
(3.36087e-14 0 0)
(5.14788e-14 0 0)
(3.02692e-14 0 0)
(1.03419e-13 0 0)
(6.12488e-14 0 0)
(6.9349e-14 0 0)
(8.43769e-14 0 0)
(1.14753e-14 0 0)
(6.39843e-14 0 0)
(1.29674e-14 0 0)
(7.41806e-14 0 0)
(-3.16902e-14 0 0)
(-1.75504e-14 0 0)
(-7.78045e-15 0 0)
(-1.88649e-14 0 0)
(-6.27764e-14 0 0)
(2.77103e-15 0 0)
(-6.08935e-14 0 0)
(-4.67893e-14 0 0)
(-7.81952e-14 0 0)
(-2.60414e-14 0 0)
(-3.68772e-14 0 0)
(-9.08073e-14 0 0)
(-6.97753e-14 0 0)
(-1.43245e-13 0 0)
(-6.42687e-14 0 0)
(-1.25517e-13 0 0)
(-1.58629e-13 0 0)
(-9.08785e-14 0 0)
(-1.46976e-13 0 0)
(-8.93508e-14 0 0)
(-1.2232e-13 0 0)
(-1.03384e-13 0 0)
(-1.02247e-13 0 0)
(-1.20473e-13 0 0)
(-1.1056e-13 0 0)
(-1.33618e-13 0 0)
(-1.09708e-13 0 0)
(-1.14291e-13 0 0)
(-6.76437e-14 0 0)
(-1.55005e-13 0 0)
(-4.19931e-14 0 0)
(-1.03846e-13 0 0)
(-1.20615e-13 0 0)
(-1.74012e-13 0 0)
(-1.3614e-13 0 0)
(-1.56959e-13 0 0)
(-1.70104e-13 0 0)
(-1.07967e-13 0 0)
(-8.88534e-14 0 0)
(-7.90479e-14 0 0)
(-1.70495e-13 0 0)
(-5.26158e-14 0 0)
(-1.6378e-13 0 0)
(-1.08074e-13 0 0)
(-9.24772e-14 0 0)
(-1.22995e-13 0 0)
(-1.61293e-13 0 0)
(-1.48503e-13 0 0)
(-1.58558e-13 0 0)
(-1.44418e-13 0 0)
(-1.13047e-13 0 0)
(-1.01501e-13 0 0)
(-8.10019e-14 0 0)
(-1.10454e-13 0 0)
(-2.86349e-14 0 0)
(-6.19238e-14 0 0)
(-1.31806e-14 0 0)
(-3.76587e-14 0 0)
(-5.40014e-15 0 0)
(-2.57216e-14 0 0)
(-2.42295e-14 0 0)
(-1.12621e-14 0 0)
(-1.54188e-14 0 0)
(5.58486e-14 0 0)
(4.34852e-14 0 0)
(-2.34478e-15 0 0)
(1.21503e-14 0 0)
(-1.10134e-14 0 0)
(-1.5277e-15 0 0)
(9.09494e-15 0 0)
(-5.25446e-14 0 0)
(1.65556e-14 0 0)
(-8.47677e-14 0 0)
(-5.85843e-14 0 0)
(-8.95639e-14 0 0)
(-9.40404e-14 0 0)
(-1.17382e-13 0 0)
(-1.33618e-13 0 0)
(-5.25802e-14 0 0)
(-2.8777e-14 0 0)
(-7.26885e-14 0 0)
(-1.99663e-14 0 0)
(-8.20321e-14 0 0)
(-4.16378e-14 0 0)
(-6.9349e-14 0 0)
(-1.37383e-13 0 0)
(-4.178e-14 0 0)
(-9.24061e-14 0 0)
(-4.84945e-14 0 0)
(-4.66826e-14 0 0)
(-8.41994e-15 0 0)
(-4.33076e-14 0 0)
(-1.8936e-14 0 0)
(-4.39116e-14 0 0)
(-1.46017e-14 0 0)
(5.32908e-15 0 0)
(-3.64863e-14 0 0)
(3.64153e-14 0 0)
(-1.02318e-14 0 0)
(2.40519e-14 0 0)
(2.76757e-14 0 0)
(4.9134e-14 0 0)
(4.10338e-14 0 0)
(1.27542e-14 0 0)
(7.92255e-15 0 0)
(-1.22569e-14 0 0)
(-3.81562e-14 0 0)
(-8.07176e-14 0 0)
(-9.53904e-14 0 0)
(-1.00542e-13 0 0)
(-5.51381e-14 0 0)
(-5.06617e-14 0 0)
(-4.85301e-14 0 0)
(-5.62039e-14 0 0)
(-5.6417e-14 0 0)
(-2.11387e-14 0 0)
(-2.29861e-14 0 0)
(-6.86739e-14 0 0)
(4.58294e-15 0 0)
(-1.60582e-14 0 0)
(1.84741e-14 0 0)
(2.12452e-14 0 0)
(1.66978e-14 0 0)
(3.39994e-14 0 0)
(1.99662e-14 0 0)
(-2.56505e-14 0 0)
(1.32872e-14 0 0)
(-1.91847e-15 0 0)
(2.12452e-14 0 0)
(4.34852e-14 0 0)
(4.13891e-14 0 0)
(6.13198e-14 0 0)
(7.76623e-14 0 0)
(7.14806e-14 0 0)
(1.0079e-13 0 0)
(8.61533e-14 0 0)
(1.06617e-13 0 0)
(1.0477e-13 0 0)
(9.01324e-14 0 0)
(1.42286e-13 0 0)
(6.83542e-14 0 0)
(1.49178e-13 0 0)
(8.13217e-14 0 0)
(1.60085e-13 0 0)
(1.29816e-13 0 0)
(1.80833e-13 0 0)
(1.48184e-13 0 0)
(1.77529e-13 0 0)
(1.25731e-13 0 0)
(2.18493e-14 0 0)
(4.73221e-14 0 0)
(-3.96127e-14 0 0)
(2.30215e-14 0 0)
(-4.18509e-14 0 0)
(-1.84741e-14 0 0)
(-2.61835e-14 0 0)
(-2.21689e-14 0 0)
(5.82641e-15 0 0)
(-5.54221e-15 0 0)
(-5.87619e-14 0 0)
(-1.30385e-14 0 0)
(-4.85656e-14 0 0)
(-6.02185e-14 0 0)
(-6.17817e-14 0 0)
(-8.77875e-14 0 0)
(-3.05179e-14 0 0)
(-6.1604e-14 0 0)
(-1.59875e-15 0 0)
(-5.79092e-14 0 0)
(2.63966e-14 0 0)
(-2.41586e-15 0 0)
(-3.49587e-14 0 0)
(-1.44951e-14 0 0)
(-8.68638e-14 0 0)
(-3.93641e-14 0 0)
(-8.37019e-14 0 0)
(-8.13926e-14 0 0)
(5.4356e-15 0 0)
(-2.30928e-15 0 0)
(7.63835e-15 0 0)
(3.02691e-14 0 0)
(4.66471e-14 0 0)
(5.25802e-15 0 0)
(-1.19016e-14 0 0)
(-3.4106e-14 0 0)
(-2.79243e-14 0 0)
(-5.3717e-14 0 0)
(-4.14957e-14 0 0)
(-6.38423e-14 0 0)
(-6.39133e-14 0 0)
(-3.29337e-14 0 0)
(-8.17158e-16 0 0)
(-2.55085e-14 0 0)
(-4.35562e-14 0 0)
(1.06936e-14 0 0)
(-2.92388e-14 0 0)
(-4.10694e-14 0 0)
(-7.56017e-14 0 0)
(-6.45173e-14 0 0)
(-6.18528e-14 0 0)
(-9.91562e-14 0 0)
(-1.05906e-13 0 0)
(-5.58131e-14 0 0)
(-7.68097e-14 0 0)
(-9.30811e-14 0 0)
(-7.9794e-14 0 0)
(-8.63665e-14 0 0)
(-1.32303e-13 0 0)
(-4.34142e-14 0 0)
(-4.93472e-14 0 0)
(-7.4678e-14 0 0)
(-5.46408e-14 0 0)
(-7.60281e-14 0 0)
(-9.01678e-14 0 0)
(-6.87095e-14 0 0)
(-5.28288e-14 0 0)
(-7.38964e-14 0 0)
(-2.71427e-14 0 0)
(-3.82983e-14 0 0)
(-7.33635e-14 0 0)
(-3.95062e-14 0 0)
(-2.83862e-14 0 0)
(-9.4147e-15 0 0)
(-2.44782e-14 0 0)
(1.97176e-14 0 0)
(2.80309e-14 0 0)
(6.07869e-14 0 0)
(3.33245e-14 0 0)
(1.55289e-13 0 0)
(9.00258e-14 0 0)
(4.41248e-14 0 0)
(8.31691e-14 0 0)
(1.26334e-13 0 0)
(1.17026e-13 0 0)
(1.18341e-13 0 0)
(1.32445e-13 0 0)
(1.53264e-13 0 0)
(7.64189e-14 0 0)
(1.10383e-13 0 0)
(9.9405e-14 0 0)
(1.62643e-13 0 0)
(1.48361e-13 0 0)
(1.4424e-13 0 0)
(1.92557e-13 0 0)
(1.28253e-13 0 0)
(1.71809e-13 0 0)
(9.87655e-14 0 0)
(2.35651e-13 0 0)
(1.47153e-13 0 0)
(1.83391e-13 0 0)
(1.51879e-13 0 0)
(1.99201e-13 0 0)
(1.82361e-13 0 0)
(2.23039e-13 0 0)
(2.04388e-13 0 0)
(1.52447e-13 0 0)
(1.54543e-13 0 0)
(1.9714e-13 0 0)
(1.74083e-13 0 0)
(1.23812e-13 0 0)
(1.51985e-13 0 0)
(1.71347e-13 0 0)
(1.81721e-13 0 0)
(1.6751e-13 0 0)
(1.59908e-13 0 0)
(1.02638e-13 0 0)
(1.53157e-13 0 0)
(3.73391e-14 0 0)
(1.42464e-13 0 0)
(9.47154e-14 0 0)
(1.1088e-13 0 0)
(7.15517e-14 0 0)
(9.86588e-14 0 0)
(9.53193e-14 0 0)
(2.42651e-14 0 0)
(1.01572e-13 0 0)
(5.67724e-14 0 0)
(6.19238e-14 0 0)
(3.38219e-14 0 0)
(7.49977e-14 0 0)
(6.16041e-14 0 0)
(2.82796e-14 0 0)
(4.66115e-14 0 0)
(-1.36778e-14 0 0)
(6.00408e-14 0 0)
(-1.48858e-14 0 0)
(-1.33227e-14 0 0)
(-8.20322e-14 0 0)
(-9.83036e-14 0 0)
(-7.5957e-14 0 0)
(-5.29355e-14 0 0)
(-8.67573e-14 0 0)
(-9.08074e-14 0 0)
(-1.17772e-13 0 0)
(-8.6935e-14 0 0)
(-1.37952e-13 0 0)
(-1.90745e-13 0 0)
(-1.31557e-13 0 0)
(-1.8769e-13 0 0)
(-8.32757e-14 0 0)
(-1.7323e-13 0 0)
(-7.00596e-14 0 0)
(-1.58877e-13 0 0)
(-1.28288e-13 0 0)
(-1.12159e-13 0 0)
(-8.18545e-14 0 0)
(-6.73239e-14 0 0)
(-9.21929e-14 0 0)
(-4.09628e-14 0 0)
(-4.56168e-14 0 0)
(-8.88889e-14 0 0)
(-2.79244e-14 0 0)
(-4.47287e-14 0 0)
(-7.87992e-14 0 0)
(-6.88871e-14 0 0)
(-5.55644e-14 0 0)
(-6.65424e-14 0 0)
(-1.53584e-13 0 0)
(-6.0787e-14 0 0)
(-1.02283e-13 0 0)
(-5.01288e-14 0 0)
(-1.16671e-13 0 0)
(-7.54952e-14 0 0)
(-8.55849e-14 0 0)
(-1.01501e-13 0 0)
(-6.6045e-14 0 0)
(-2.11032e-14 0 0)
(-5.86201e-15 0 0)
(-6.70396e-14 0 0)
(4.85655e-14 0 0)
(-4.10338e-14 0 0)
(3.46034e-14 0 0)
(5.32905e-15 0 0)
(-4.94182e-14 0 0)
(3.46389e-14 0 0)
(2.91328e-15 0 0)
(4.14601e-14 0 0)
(3.85469e-14 0 0)
(2.85994e-14 0 0)
(2.01083e-14 0 0)
(-1.4566e-15 0 0)
(1.17239e-14 0 0)
(-9.84102e-15 0 0)
(-3.6664e-14 0 0)
(-5.98632e-14 0 0)
(-3.11573e-14 0 0)
(-6.02895e-14 0 0)
(2.03925e-14 0 0)
(7.14092e-15 0 0)
(-4.00745e-14 0 0)
(1.14397e-14 0 0)
(3.22586e-14 0 0)
(-1.32871e-14 0 0)
(-5.03419e-14 0 0)
(3.92929e-14 0 0)
(-2.45137e-14 0 0)
(-5.15854e-14 0 0)
(1.32516e-14 0 0)
(-3.50297e-14 0 0)
(-1.89715e-14 0 0)
(-6.62936e-14 0 0)
(-6.02896e-14 0 0)
(-8.22453e-14 0 0)
(-3.65574e-14 0 0)
(-6.61515e-14 0 0)
(-5.32197e-14 0 0)
(-4.1176e-14 0 0)
(-4.15667e-14 0 0)
(9.13042e-15 0 0)
(-2.55085e-14 0 0)
(-1.54898e-14 0 0)
(-9.45025e-15 0 0)
(7.49625e-15 0 0)
(2.57216e-14 0 0)
(5.63815e-14 0 0)
(-3.11572e-14 0 0)
(5.03063e-14 0 0)
(-8.27778e-15 0 0)
(-2.13163e-14 0 0)
(-1.66267e-14 0 0)
(-5.29354e-14 0 0)
(-8.91375e-14 0 0)
(-4.29524e-14 0 0)
(-1.05054e-13 0 0)
(-8.53718e-14 0 0)
(-1.31237e-13 0 0)
(-6.95977e-14 0 0)
(-4.89919e-14 0 0)
(-6.3558e-14 0 0)
(6.67903e-15 0 0)
(-2.38032e-14 0 0)
(4.05005e-15 0 0)
(-4.0643e-14 0 0)
(-2.8102e-14 0 0)
(-7.40741e-14 0 0)
(-7.32214e-14 0 0)
(-3.70548e-14 0 0)
(-7.54952e-14 0 0)
(-7.76268e-14 0 0)
(-9.92272e-14 0 0)
(-7.31504e-14 0 0)
(-7.73781e-14 0 0)
(-4.02523e-14 0 0)
(-4.94537e-14 0 0)
(3.79074e-14 0 0)
(6.32392e-15 0 0)
(1.00933e-13 0 0)
(6.47305e-14 0 0)
(9.45377e-14 0 0)
(7.09121e-14 0 0)
(-2.88834e-14 0 0)
(7.85504e-14 0 0)
(9.45027e-15 0 0)
(9.3081e-14 0 0)
(2.3519e-14 0 0)
(1.66267e-14 0 0)
(3.19389e-14 0 0)
(2.93099e-14 0 0)
(3.7268e-14 0 0)
(5.08039e-15 0 0)
(-2.47624e-14 0 0)
(4.29877e-15 0 0)
(-1.80833e-14 0 0)
(-4.54036e-14 0 0)
(-4.27391e-14 0 0)
(-1.86163e-14 0 0)
(-8.19256e-14 0 0)
(2.55786e-15 0 0)
(-1.0786e-13 0 0)
(-7.35057e-14 0 0)
(-1.34115e-13 0 0)
(-1.47971e-13 0 0)
(-1.75007e-13 0 0)
(-1.96607e-13 0 0)
(-1.68896e-13 0 0)
(-1.96323e-13 0 0)
(-1.32481e-13 0 0)
(-1.93125e-13 0 0)
(-1.72307e-13 0 0)
(-1.85807e-13 0 0)
(-1.47686e-13 0 0)
(-1.61897e-13 0 0)
(-1.5639e-13 0 0)
(-9.45377e-14 0 0)
(-1.28182e-13 0 0)
(-3.29692e-14 0 0)
(-1.07434e-13 0 0)
(-9.33298e-14 0 0)
(-9.57811e-14 0 0)
(-4.8992e-14 0 0)
(-7.29372e-14 0 0)
(-1.0381e-13 0 0)
(-4.59721e-14 0 0)
(-6.32383e-14 0 0)
(-3.14771e-14 0 0)
(-6.96687e-14 0 0)
(-4.79616e-14 0 0)
(-5.67723e-14 0 0)
(-1.3145e-14 0 0)
(-3.69838e-14 0 0)
(2.9132e-15 0 0)
(-6.95976e-14 0 0)
(3.41051e-15 0 0)
(-6.64357e-14 0 0)
(-2.33059e-14 0 0)
(-4.72866e-14 0 0)
(-6.9349e-14 0 0)
(-1.31096e-14 0 0)
(-6.12488e-14 0 0)
(-2.35901e-14 0 0)
(-5.68079e-14 0 0)
(-7.76978e-14 0 0)
(-6.45173e-14 0 0)
(-3.87602e-14 0 0)
(-1.15605e-13 0 0)
(-2.22756e-14 0 0)
(-1.25553e-13 0 0)
(-1.08074e-13 0 0)
(-1.17986e-13 0 0)
(-9.48575e-14 0 0)
(-1.07967e-13 0 0)
(-1.29567e-13 0 0)
(-1.43849e-13 0 0)
(-2.24176e-13 0 0)
(-1.79234e-13 0 0)
(-2.36753e-13 0 0)
(-2.38742e-13 0 0)
(-2.41265e-13 0 0)
(-2.95515e-13 0 0)
(-2.36682e-13 0 0)
(-2.98428e-13 0 0)
(-3.14664e-13 0 0)
(-2.9921e-13 0 0)
(-3.7268e-13 0 0)
(-3.09441e-13 0 0)
(-3.68203e-13 0 0)
(-3.13527e-13 0 0)
(-3.72715e-13 0 0)
(-4.29132e-13 0 0)
(-3.93463e-13 0 0)
(-4.64127e-13 0 0)
(-4.46896e-13 0 0)
(-4.56986e-13 0 0)
(-4.7983e-13 0 0)
(-5.11342e-13 0 0)
(-5.25304e-13 0 0)
(-5.33014e-13 0 0)
(-5.29994e-13 0 0)
(-4.53539e-13 0 0)
(-4.13216e-13 0 0)
(-2.36966e-14 0 0)
(7.65361e-13 0 0)
(2.82743e-12 0 0)
(7.37757e-12 0 0)
(1.80461e-11 0 0)
(4.25141e-11 0 0)
(9.81319e-11 0 0)
(2.2319e-10 0 0)
(5.00843e-10 0 0)
(1.11063e-09 0 0)
(2.43385e-09 0 0)
(5.27063e-09 0 0)
(1.12782e-08 0 0)
(2.3841e-08 0 0)
(4.97759e-08 0 0)
(1.02618e-07 0 0)
(2.08849e-07 0 0)
(4.19502e-07 0 0)
(8.3141e-07 0 0)
(1.6254e-06 0 0)
(3.13365e-06 0 0)
(5.95611e-06 0 0)
(1.11576e-05 0 0)
(2.05945e-05 0 0)
(3.74431e-05 0 0)
(6.70349e-05 0 0)
(0.000118143 0 0)
(0.000204906 0 0)
(0.000349636 0 0)
(0.000586757 0 0)
(0.00096818 0 0)
(0.00157033 0 0)
(0.00250293 0 0)
(0.00391951 0 0)
(0.00602916 0 0)
(0.00910876 0 0)
(0.0135144 0 0)
(0.0196905 0 0)
(0.0281747 0 0)
(0.0395961 0 0)
(0.0546677 0 0)
(0.074169 0 0)
(0.0989231 0 0)
(0.129767 0 0)
(0.167522 0 0)
(0.212961 0 0)
(0.266785 0 0)
(0.329605 0 0)
(0.401933 0 0)
(0.484181 0 0)
(0.576672 0 0)
(0.679653 0 0)
(0.793309 0 0)
(0.91778 0 0)
(1.05318 0 0)
(1.19958 0 0)
(1.35707 0 0)
(1.52571 0 0)
(1.70555 0 0)
(1.89666 0 0)
(2.0991 0 0)
(2.3129 0 0)
(2.53814 0 0)
(2.77485 0 0)
(3.02311 0 0)
(3.28296 0 0)
(3.55446 0 0)
(3.83766 0 0)
(4.13263 0 0)
(4.43943 0 0)
(4.75813 0 0)
(5.08877 0 0)
(5.43144 0 0)
(5.78621 0 0)
(6.15314 0 0)
(6.53232 0 0)
(6.92381 0 0)
(7.3277 0 0)
(7.74407 0 0)
(8.17301 0 0)
(8.61461 0 0)
(9.06896 0 0)
(9.53614 0 0)
(10.0163 0 0)
(10.5094 0 0)
(11.0157 0 0)
(11.5353 0 0)
(12.068 0 0)
(12.6146 0 0)
(13.1736 0 0)
(13.7491 0 0)
(14.3319 0 0)
(14.9422 0 0)
(15.5393 0 0)
(16.2006 0 0)
(16.79 0 0)
(17.5276 0 0)
(18.0803 0 0)
(18.9122 0 0)
(19.3552 0 0)
(20.6694 0 0)
)
;

boundaryField
{
    sideLeft
    {
        type            symmetryPlane;
    }
    sideRight
    {
        type            calculated;
        value           uniform (20.3864 0 0);
    }
    topbottom
    {
        type            empty;
    }
    frontback
    {
        type            empty;
    }
}


// ************************************************************************* //
