/*--------------------------------*- C++ -*----------------------------------*\
| =========                 |                                                 |
| \\      /  F ield         | OpenFOAM: The Open Source CFD Toolbox           |
|  \\    /   O peration     | Version:  2.4.0                                 |
|   \\  /    A nd           | Web:      www.OpenFOAM.org                      |
|    \\/     M anipulation  |                                                 |
\*---------------------------------------------------------------------------*/
FoamFile
{
    version     2.0;
    format      ascii;
    class       volVectorField;
    location    "0.02";
    object      U.air;
}
// * * * * * * * * * * * * * * * * * * * * * * * * * * * * * * * * * * * * * //

dimensions      [0 1 -1 0 0 0 0];

internalField   nonuniform List<vector> 
1000
(
(-9.23704e-14 0 0)
(-3.69482e-13 0 0)
(-4.1922e-13 0 0)
(-2.62901e-13 0 0)
(-2.20268e-13 0 0)
(3.33955e-13 0 0)
(2.06057e-13 0 0)
(2.27374e-13 0 0)
(2.98428e-13 0 0)
(-6.39488e-14 0 0)
(7.10541e-15 0 0)
(-1.13687e-13 0 0)
(-2.91323e-13 0 0)
(-5.68433e-14 0 0)
(-3.55272e-14 0 0)
(-1.06581e-13 0 0)
(-2.84217e-14 0 0)
(2.84217e-14 0 0)
(5.68434e-14 0 0)
(7.10553e-15 0 0)
(-8.52653e-14 0 0)
(-1.84741e-13 0 0)
(-2.70006e-13 0 0)
(-5.11591e-13 0 0)
(-6.18172e-13 0 0)
(-8.73968e-13 0 0)
(-7.03437e-13 0 0)
(-1.35003e-13 0 0)
(3.12639e-13 0 0)
(7.38964e-13 0 0)
(5.32907e-13 0 0)
(2.62901e-13 0 0)
(1.84741e-13 0 0)
(1.42109e-13 0 0)
(-4.97381e-14 0 0)
(-2.27374e-13 0 0)
(8.52649e-14 0 0)
(-1.56319e-13 0 0)
(7.10542e-14 0 0)
(1.20792e-13 0 0)
(2.13163e-13 0 0)
(-7.81597e-14 0 0)
(6.39488e-14 0 0)
(5.47118e-13 0 0)
(7.10543e-13 0 0)
(5.96856e-13 0 0)
(3.62377e-13 0 0)
(8.52652e-14 0 0)
(2.06057e-13 0 0)
(9.23705e-14 0 0)
(-3.12639e-13 0 0)
(-2.91323e-13 0 0)
(-4.54747e-13 0 0)
(-3.62377e-13 0 0)
(-4.9738e-13 0 0)
(-3.19744e-13 0 0)
(-1.7053e-13 0 0)
(-3.69482e-13 0 0)
(-3.12639e-13 0 0)
(-1.77636e-13 0 0)
(-3.2685e-13 0 0)
(-3.33955e-13 0 0)
(-3.83693e-13 0 0)
(-1.42108e-13 0 0)
(2.84216e-14 0 0)
(1.91847e-13 0 0)
(4.1922e-13 0 0)
(4.90275e-13 0 0)
(3.55271e-13 0 0)
(7.81595e-14 0 0)
(6.3949e-14 0 0)
(2.06057e-13 0 0)
(3.05534e-13 0 0)
(5.25802e-13 0 0)
(3.97904e-13 0 0)
(2.34479e-13 0 0)
(3.19744e-13 0 0)
(7.10544e-14 0 0)
(-2.06057e-13 0 0)
(-2.13163e-13 0 0)
(-1.12381e-20 0 0)
(-1.7053e-13 0 0)
(2.06058e-13 0 0)
(2.91322e-13 0 0)
(2.13163e-14 0 0)
(2.98428e-13 0 0)
(1.20792e-13 0 0)
(1.06581e-13 0 0)
(2.34479e-13 0 0)
(-4.26324e-14 0 0)
(-8.35769e-20 0 0)
(3.55271e-14 0 0)
(-7.10534e-15 0 0)
(2.70006e-13 0 0)
(3.2685e-13 0 0)
(3.97904e-13 0 0)
(2.77112e-13 0 0)
(4.40536e-13 0 0)
(4.61853e-13 0 0)
(4.12115e-13 0 0)
(2.84217e-13 0 0)
(2.91322e-13 0 0)
(4.68958e-13 0 0)
(4.1922e-13 0 0)
(2.84217e-13 0 0)
(2.4869e-13 0 0)
(3.97904e-13 0 0)
(2.91323e-13 0 0)
(9.9476e-14 0 0)
(-1.13687e-13 0 0)
(-3.62377e-13 0 0)
(-4.9738e-13 0 0)
(-6.32383e-13 0 0)
(-5.11591e-13 0 0)
(-5.32907e-13 0 0)
(-6.89226e-13 0 0)
(-6.25278e-13 0 0)
(-5.8975e-13 0 0)
(-8.38441e-13 0 0)
(-9.23706e-13 0 0)
(-7.81597e-13 0 0)
(-7.10543e-13 0 0)
(-4.40536e-13 0 0)
(-1.27898e-13 0 0)
(4.26326e-14 0 0)
(-2.84217e-14 0 0)
(-1.77636e-13 0 0)
(-2.84217e-14 0 0)
(1.06581e-13 0 0)
(2.06057e-13 0 0)
(2.91322e-13 0 0)
(1.56319e-13 0 0)
(2.91323e-13 0 0)
(7.81596e-14 0 0)
(-2.27374e-13 0 0)
(-6.03961e-13 0 0)
(-7.03437e-13 0 0)
(-6.32383e-13 0 0)
(-6.75016e-13 0 0)
(-5.32907e-13 0 0)
(-3.2685e-13 0 0)
(-1.49214e-13 0 0)
(-1.56319e-13 0 0)
(-3.2685e-13 0 0)
(-4.1922e-13 0 0)
(-7.81598e-14 0 0)
(2.13163e-13 0 0)
(-4.9738e-14 0 0)
(-1.7053e-13 0 0)
(-1.49214e-13 0 0)
(6.39489e-14 0 0)
(4.1922e-13 0 0)
(4.68958e-13 0 0)
(6.46594e-13 0 0)
(5.32907e-13 0 0)
(9.23706e-14 0 0)
(-4.26327e-14 0 0)
(-2.41585e-13 0 0)
(-2.4869e-13 0 0)
(-2.34479e-13 0 0)
(-1.42108e-13 0 0)
(9.23706e-14 0 0)
(-1.49214e-13 0 0)
(-6.39489e-14 0 0)
(-2.84217e-14 0 0)
(7.81598e-14 0 0)
(-4.26327e-14 0 0)
(-1.49214e-13 0 0)
(1.42108e-14 0 0)
(-1.7053e-13 0 0)
(7.10538e-15 0 0)
(3.05533e-13 0 0)
(4.83169e-13 0 0)
(3.33955e-13 0 0)
(-1.06581e-13 0 0)
(-3.19744e-13 0 0)
(-2.41584e-13 0 0)
(1.91846e-13 0 0)
(2.4869e-13 0 0)
(3.55271e-14 0 0)
(-7.10543e-14 0 0)
(-1.13687e-13 0 0)
(-2.84217e-13 0 0)
(-1.91846e-13 0 0)
(-1.98952e-13 0 0)
(-2.55795e-13 0 0)
(-1.42109e-13 0 0)
(-3.05533e-13 0 0)
(-2.27374e-13 0 0)
(-2.27374e-13 0 0)
(1.63425e-13 0 0)
(-1.20792e-13 0 0)
(-1.27898e-13 0 0)
(2.84217e-14 0 0)
(-4.26325e-14 0 0)
(2.98428e-13 0 0)
(4.83169e-13 0 0)
(4.90274e-13 0 0)
(3.41061e-13 0 0)
(1.84741e-13 0 0)
(1.7053e-13 0 0)
(1.35003e-13 0 0)
(3.90799e-13 0 0)
(3.55271e-14 0 0)
(-2.98428e-13 0 0)
(-2.62901e-13 0 0)
(-8.52652e-14 0 0)
(-9.94759e-14 0 0)
(7.10538e-15 0 0)
(-3.55271e-14 0 0)
(8.5265e-14 0 0)
(8.52652e-14 0 0)
(-3.48166e-13 0 0)
(-4.83169e-13 0 0)
(-5.82645e-13 0 0)
(-4.68958e-13 0 0)
(-6.53699e-13 0 0)
(-8.10019e-13 0 0)
(-6.89226e-13 0 0)
(-5.32907e-13 0 0)
(-3.69482e-13 0 0)
(-1.42108e-14 0 0)
(2.20268e-13 0 0)
(2.4869e-13 0 0)
(1.56319e-13 0 0)
(4.90274e-13 0 0)
(3.48166e-13 0 0)
(1.35003e-13 0 0)
(1.77636e-13 0 0)
(1.49214e-13 0 0)
(9.9476e-14 0 0)
(3.83693e-13 0 0)
(3.83693e-13 0 0)
(2.4869e-13 0 0)
(3.2685e-13 0 0)
(1.35003e-13 0 0)
(7.81598e-14 0 0)
(5.68434e-14 0 0)
(4.9738e-14 0 0)
(2.62901e-13 0 0)
(2.91322e-13 0 0)
(2.27374e-13 0 0)
(3.05534e-13 0 0)
(4.54747e-13 0 0)
(2.34479e-13 0 0)
(2.77112e-13 0 0)
(2.91323e-13 0 0)
(4.1922e-13 0 0)
(6.11067e-13 0 0)
(6.75016e-13 0 0)
(4.61853e-13 0 0)
(4.61853e-13 0 0)
(2.91323e-13 0 0)
(-6.39488e-14 0 0)
(7.10536e-15 0 0)
(2.13164e-14 0 0)
(-5.68435e-14 0 0)
(4.26326e-14 0 0)
(-2.13164e-14 0 0)
(-1.20792e-13 0 0)
(-1.06582e-13 0 0)
(-4.76063e-13 0 0)
(-3.41061e-13 0 0)
(-6.03961e-13 0 0)
(-4.76064e-13 0 0)
(-3.33955e-13 0 0)
(-4.12115e-13 0 0)
(-2.77112e-13 0 0)
(-3.2685e-13 0 0)
(-3.05533e-13 0 0)
(-1.27898e-13 0 0)
(-1.42109e-14 0 0)
(-1.49214e-13 0 0)
(-2.4869e-13 0 0)
(-2.27374e-13 0 0)
(-3.55272e-14 0 0)
(1.06582e-13 0 0)
(2.62901e-13 0 0)
(5.85898e-20 0 0)
(4.26326e-14 0 0)
(-2.20268e-13 0 0)
(-4.68958e-13 0 0)
(-4.12115e-13 0 0)
(-1.91846e-13 0 0)
(-8.52653e-14 0 0)
(-4.05009e-13 0 0)
(1.42107e-14 0 0)
(7.10557e-15 0 0)
(8.52651e-14 0 0)
(1.84741e-13 0 0)
(4.26325e-14 0 0)
(-3.55272e-14 0 0)
(6.39489e-14 0 0)
(-1.06581e-13 0 0)
(-1.77636e-13 0 0)
(-7.10543e-14 0 0)
(-3.76588e-13 0 0)
(-1.77636e-13 0 0)
(-8.52652e-14 0 0)
(-2.34479e-13 0 0)
(-3.83693e-13 0 0)
(-2.41584e-13 0 0)
(1.7053e-13 0 0)
(2.91322e-13 0 0)
(1.63425e-13 0 0)
(3.69482e-13 0 0)
(5.96856e-13 0 0)
(6.6791e-13 0 0)
(4.83169e-13 0 0)
(5.11591e-13 0 0)
(2.41585e-13 0 0)
(2.84218e-14 0 0)
(-2.13164e-14 0 0)
(-1.63425e-13 0 0)
(-9.23706e-14 0 0)
(4.9738e-14 0 0)
(2.70006e-13 0 0)
(1.63425e-13 0 0)
(-1.1797e-20 0 0)
(-2.13163e-14 0 0)
(1.27898e-13 0 0)
(2.55795e-13 0 0)
(4.40536e-13 0 0)
(2.20268e-13 0 0)
(1.27898e-13 0 0)
(-1.35003e-13 0 0)
(-4.26325e-14 0 0)
(6.39488e-14 0 0)
(4.9738e-14 0 0)
(3.12639e-13 0 0)
(3.69482e-13 0 0)
(4.1922e-13 0 0)
(2.91323e-13 0 0)
(4.9738e-13 0 0)
(2.62901e-13 0 0)
(-3.55273e-14 0 0)
(1.42109e-13 0 0)
(3.69482e-13 0 0)
(3.05533e-13 0 0)
(3.05533e-13 0 0)
(4.26326e-13 0 0)
(5.96856e-13 0 0)
(5.68434e-13 0 0)
(5.54223e-13 0 0)
(5.32907e-13 0 0)
(4.12115e-13 0 0)
(4.54747e-13 0 0)
(2.27374e-13 0 0)
(2.41584e-13 0 0)
(4.97381e-14 0 0)
(1.27898e-13 0 0)
(2.84218e-14 0 0)
(-2.20268e-13 0 0)
(-3.12639e-13 0 0)
(-2.34479e-13 0 0)
(-1.7053e-13 0 0)
(-2.98428e-13 0 0)
(-2.70006e-13 0 0)
(-4.54747e-13 0 0)
(-6.03961e-13 0 0)
(-3.62377e-13 0 0)
(-1.42109e-13 0 0)
(1.4211e-14 0 0)
(-1.13687e-13 0 0)
(-2.98428e-13 0 0)
(-8.52651e-14 0 0)
(-1.20792e-13 0 0)
(-2.77112e-13 0 0)
(-7.24754e-13 0 0)
(-7.31859e-13 0 0)
(-6.53699e-13 0 0)
(-4.61853e-13 0 0)
(-2.13163e-13 0 0)
(-3.76588e-13 0 0)
(-2.77112e-13 0 0)
(-1.35003e-13 0 0)
(5.72861e-20 0 0)
(-2.91323e-13 0 0)
(-2.20268e-13 0 0)
(-1.42109e-13 0 0)
(-2.41584e-13 0 0)
(2.91322e-13 0 0)
(2.91323e-13 0 0)
(3.41061e-13 0 0)
(1.91846e-13 0 0)
(6.3949e-14 0 0)
(9.94759e-14 0 0)
(1.98952e-13 0 0)
(3.12639e-13 0 0)
(8.52652e-14 0 0)
(2.91323e-13 0 0)
(3.55271e-13 0 0)
(1.84741e-13 0 0)
(-9.23704e-14 0 0)
(-1.49214e-13 0 0)
(-2.62901e-13 0 0)
(-2.62901e-13 0 0)
(-2.98428e-13 0 0)
(-4.97381e-14 0 0)
(1.35003e-13 0 0)
(9.23706e-14 0 0)
(1.7053e-13 0 0)
(-2.84216e-14 0 0)
(-1.84741e-13 0 0)
(-2.70006e-13 0 0)
(-4.61853e-13 0 0)
(-5.18696e-13 0 0)
(-6.18172e-13 0 0)
(-2.91323e-13 0 0)
(-2.98428e-13 0 0)
(-4.61853e-13 0 0)
(-3.55271e-13 0 0)
(-4.26326e-13 0 0)
(-9.23706e-14 0 0)
(2.13163e-13 0 0)
(1.98952e-13 0 0)
(1.42109e-13 0 0)
(1.84741e-13 0 0)
(-3.55269e-14 0 0)
(2.84215e-14 0 0)
(3.55272e-14 0 0)
(7.81597e-14 0 0)
(-4.97379e-14 0 0)
(3.19744e-13 0 0)
(2.84217e-13 0 0)
(1.7053e-13 0 0)
(2.55795e-13 0 0)
(1.7053e-13 0 0)
(-2.13164e-14 0 0)
(-1.20792e-13 0 0)
(7.81595e-14 0 0)
(-2.84217e-13 0 0)
(-4.61853e-13 0 0)
(-3.69482e-13 0 0)
(-4.47642e-13 0 0)
(-5.7554e-13 0 0)
(-4.68958e-13 0 0)
(-6.32383e-13 0 0)
(-5.47118e-13 0 0)
(-3.55271e-13 0 0)
(-8.52651e-14 0 0)
(-3.55272e-14 0 0)
(-9.23704e-14 0 0)
(6.39488e-14 0 0)
(6.39489e-14 0 0)
(-4.97381e-14 0 0)
(-1.27898e-13 0 0)
(-1.42109e-14 0 0)
(-2.77112e-13 0 0)
(-3.48166e-13 0 0)
(-1.91847e-13 0 0)
(-1.42108e-13 0 0)
(-2.84218e-14 0 0)
(-4.26326e-14 0 0)
(-1.77636e-13 0 0)
(-5.68435e-14 0 0)
(2.13163e-13 0 0)
(3.12639e-13 0 0)
(5.40012e-13 0 0)
(6.18172e-13 0 0)
(4.68958e-13 0 0)
(2.27374e-13 0 0)
(1.56319e-13 0 0)
(-2.98428e-13 0 0)
(-5.11591e-13 0 0)
(-6.03961e-13 0 0)
(-7.10543e-13 0 0)
(-6.18172e-13 0 0)
(-6.82121e-13 0 0)
(-8.02913e-13 0 0)
(-5.7554e-13 0 0)
(-6.53699e-13 0 0)
(-8.17124e-13 0 0)
(-7.74492e-13 0 0)
(-7.24753e-13 0 0)
(-6.46594e-13 0 0)
(-4.68958e-13 0 0)
(-2.20268e-13 0 0)
(-2.4869e-13 0 0)
(-2.13163e-13 0 0)
(-1.77636e-13 0 0)
(-3.55272e-14 0 0)
(-2.4869e-13 0 0)
(-2.91323e-13 0 0)
(-3.33955e-13 0 0)
(-2.98428e-13 0 0)
(-2.84218e-14 0 0)
(-1.84741e-13 0 0)
(-1.49214e-13 0 0)
(4.9738e-14 0 0)
(-1.42109e-14 0 0)
(2.20268e-13 0 0)
(3.76588e-13 0 0)
(2.20268e-13 0 0)
(5.68434e-14 0 0)
(1.13687e-13 0 0)
(3.69482e-13 0 0)
(1.63425e-13 0 0)
(3.12639e-13 0 0)
(3.19744e-13 0 0)
(-4.26326e-14 0 0)
(-2.13163e-13 0 0)
(-1.42109e-13 0 0)
(1.91847e-13 0 0)
(3.83693e-13 0 0)
(3.69482e-13 0 0)
(3.55272e-13 0 0)
(3.2685e-13 0 0)
(7.10547e-15 0 0)
(1.20792e-13 0 0)
(4.12115e-13 0 0)
(3.19744e-13 0 0)
(3.69482e-13 0 0)
(2.06057e-13 0 0)
(-8.5265e-14 0 0)
(-6.39489e-14 0 0)
(-1.56319e-13 0 0)
(-2.20268e-13 0 0)
(-4.1922e-13 0 0)
(-2.4869e-13 0 0)
(-7.81597e-14 0 0)
(1.42108e-14 0 0)
(-4.26326e-14 0 0)
(1.56319e-13 0 0)
(7.10543e-14 0 0)
(7.10543e-14 0 0)
(9.9476e-14 0 0)
(-2.13162e-14 0 0)
(-1.4211e-14 0 0)
(-2.20268e-13 0 0)
(2.84216e-14 0 0)
(-4.26324e-14 0 0)
(4.26325e-14 0 0)
(2.13164e-14 0 0)
(8.5265e-14 0 0)
(4.1922e-13 0 0)
(8.10019e-13 0 0)
(6.75016e-13 0 0)
(5.18696e-13 0 0)
(3.19744e-13 0 0)
(7.10544e-14 0 0)
(2.06057e-13 0 0)
(1.84741e-13 0 0)
(-2.13163e-13 0 0)
(-3.2685e-13 0 0)
(1.42109e-14 0 0)
(1.20792e-13 0 0)
(5.68434e-14 0 0)
(-9.23705e-14 0 0)
(-2.84218e-14 0 0)
(7.10543e-14 0 0)
(1.20792e-13 0 0)
(-1.49214e-13 0 0)
(-1.35003e-13 0 0)
(6.39488e-14 0 0)
(3.69482e-13 0 0)
(4.05009e-13 0 0)
(3.41061e-13 0 0)
(6.82121e-13 0 0)
(4.9738e-13 0 0)
(4.1922e-13 0 0)
(3.05533e-13 0 0)
(2.70006e-13 0 0)
(1.49214e-13 0 0)
(-9.23705e-14 0 0)
(-8.5265e-14 0 0)
(-9.94761e-14 0 0)
(-3.41061e-13 0 0)
(-3.90799e-13 0 0)
(-3.97904e-13 0 0)
(-1.91847e-13 0 0)
(-1.20792e-13 0 0)
(-1.42109e-13 0 0)
(-2.13163e-13 0 0)
(-1.06581e-13 0 0)
(9.23706e-14 0 0)
(-7.10543e-14 0 0)
(-2.98428e-13 0 0)
(-6.82121e-13 0 0)
(-7.31859e-13 0 0)
(-5.18696e-13 0 0)
(-4.83169e-13 0 0)
(-4.76064e-13 0 0)
(-4.33431e-13 0 0)
(-3.83693e-13 0 0)
(-1.42109e-13 0 0)
(8.52652e-14 0 0)
(8.52651e-14 0 0)
(3.55271e-14 0 0)
(-3.55271e-14 0 0)
(-2.34479e-13 0 0)
(-1.7053e-13 0 0)
(-5.82645e-13 0 0)
(-5.7554e-13 0 0)
(-4.9738e-13 0 0)
(-2.91323e-13 0 0)
(-2.27374e-13 0 0)
(-2.4869e-13 0 0)
(-2.4869e-13 0 0)
(-1.63425e-13 0 0)
(-1.42109e-14 0 0)
(-8.52651e-14 0 0)
(-1.42108e-14 0 0)
(-5.68434e-14 0 0)
(-2.24093e-20 0 0)
(-7.81596e-14 0 0)
(-1.91847e-13 0 0)
(-2.77112e-13 0 0)
(7.10544e-14 0 0)
(3.62377e-13 0 0)
(4.83169e-13 0 0)
(4.83169e-13 0 0)
(4.61853e-13 0 0)
(3.97904e-13 0 0)
(2.20268e-13 0 0)
(3.05533e-13 0 0)
(2.70006e-13 0 0)
(6.18172e-13 0 0)
(2.55795e-13 0 0)
(1.06582e-13 0 0)
(4.26326e-14 0 0)
(1.7053e-13 0 0)
(2.91323e-13 0 0)
(1.84741e-13 0 0)
(2.84217e-13 0 0)
(8.5265e-14 0 0)
(1.42109e-13 0 0)
(2.84217e-13 0 0)
(2.84218e-14 0 0)
(-2.84218e-14 0 0)
(6.39489e-14 0 0)
(2.84217e-13 0 0)
(1.63425e-13 0 0)
(-9.94759e-14 0 0)
(-2.13164e-14 0 0)
(1.63425e-13 0 0)
(5.82645e-13 0 0)
(5.47118e-13 0 0)
(8.45546e-13 0 0)
(1.07292e-12 0 0)
(1.10845e-12 0 0)
(5.54223e-13 0 0)
(4.40536e-13 0 0)
(2.4869e-13 0 0)
(2.20268e-13 0 0)
(2.34479e-13 0 0)
(1.13687e-13 0 0)
(1.13687e-13 0 0)
(1.35003e-13 0 0)
(1.06581e-13 0 0)
(2.4869e-13 0 0)
(1.91847e-13 0 0)
(-1.42108e-14 0 0)
(3.05533e-13 0 0)
(4.68958e-13 0 0)
(6.60805e-13 0 0)
(7.74492e-13 0 0)
(6.60805e-13 0 0)
(2.41585e-13 0 0)
(3.12639e-13 0 0)
(1.56319e-13 0 0)
(-1.13687e-13 0 0)
(-3.55271e-13 0 0)
(-4.33431e-13 0 0)
(-5.18696e-13 0 0)
(-2.98428e-13 0 0)
(-1.91847e-13 0 0)
(-1.84741e-13 0 0)
(-1.42109e-13 0 0)
(1.56319e-13 0 0)
(2.34479e-13 0 0)
(-4.97381e-14 0 0)
(1.35003e-13 0 0)
(4.61853e-13 0 0)
(1.91847e-13 0 0)
(7.10538e-15 0 0)
(-7.81597e-14 0 0)
(1.63425e-13 0 0)
(1.7053e-13 0 0)
(7.10534e-15 0 0)
(3.55272e-14 0 0)
(-2.13163e-14 0 0)
(2.13164e-14 0 0)
(-3.55272e-14 0 0)
(1.42109e-14 0 0)
(2.13164e-14 0 0)
(-7.10555e-15 0 0)
(-1.35003e-13 0 0)
(-2.84219e-14 0 0)
(-2.55795e-13 0 0)
(-5.68436e-14 0 0)
(3.19744e-13 0 0)
(6.32383e-13 0 0)
(4.40537e-13 0 0)
(9.9476e-14 0 0)
(5.68434e-14 0 0)
(2.20268e-13 0 0)
(3.33955e-13 0 0)
(2.27374e-13 0 0)
(1.5632e-13 0 0)
(6.39487e-14 0 0)
(1.06581e-13 0 0)
(9.23706e-14 0 0)
(-3.33955e-13 0 0)
(-1.77636e-13 0 0)
(2.84216e-14 0 0)
(-1.42108e-13 0 0)
(-3.62377e-13 0 0)
(-5.96856e-13 0 0)
(-6.89227e-13 0 0)
(-8.59757e-13 0 0)
(-8.81073e-13 0 0)
(-8.31335e-13 0 0)
(-6.46594e-13 0 0)
(-6.75016e-13 0 0)
(-4.9738e-13 0 0)
(-3.90799e-13 0 0)
(-3.97904e-13 0 0)
(-4.26328e-14 0 0)
(-4.26324e-14 0 0)
(-1.5632e-13 0 0)
(-2.98428e-13 0 0)
(-3.05533e-13 0 0)
(-1.20792e-13 0 0)
(-2.13162e-14 0 0)
(-7.10546e-15 0 0)
(4.26326e-14 0 0)
(-1.06581e-13 0 0)
(-3.48166e-13 0 0)
(-2.41585e-13 0 0)
(-3.48166e-13 0 0)
(-5.82645e-13 0 0)
(-5.11591e-13 0 0)
(-3.2685e-13 0 0)
(-7.81597e-14 0 0)
(1.49214e-13 0 0)
(3.2685e-13 0 0)
(1.7053e-13 0 0)
(7.81598e-14 0 0)
(1.49214e-13 0 0)
(1.35003e-13 0 0)
(1.91847e-13 0 0)
(3.05534e-13 0 0)
(2.62901e-13 0 0)
(3.55272e-14 0 0)
(-4.26325e-14 0 0)
(1.27898e-13 0 0)
(-2.13162e-14 0 0)
(1.20792e-13 0 0)
(5.68435e-14 0 0)
(-6.39489e-14 0 0)
(-1.27898e-13 0 0)
(-2.70006e-13 0 0)
(-5.11591e-13 0 0)
(-6.6791e-13 0 0)
(-3.97904e-13 0 0)
(-3.90798e-13 0 0)
(-2.27374e-13 0 0)
(2.84218e-14 0 0)
(2.41585e-13 0 0)
(3.97904e-13 0 0)
(6.46594e-13 0 0)
(4.61853e-13 0 0)
(3.4106e-13 0 0)
(2.20268e-13 0 0)
(3.2685e-13 0 0)
(4.26326e-13 0 0)
(4.05009e-13 0 0)
(3.97904e-13 0 0)
(2.77112e-13 0 0)
(4.47642e-13 0 0)
(5.68434e-13 0 0)
(7.38965e-13 0 0)
(8.59757e-13 0 0)
(8.38441e-13 0 0)
(7.88702e-13 0 0)
(7.10543e-13 0 0)
(5.25802e-13 0 0)
(5.47118e-13 0 0)
(5.61329e-13 0 0)
(1.06581e-13 0 0)
(-4.97379e-14 0 0)
(-2.27374e-13 0 0)
(-2.77112e-13 0 0)
(-7.81597e-14 0 0)
(-1.20792e-13 0 0)
(-1.42109e-13 0 0)
(9.23705e-14 0 0)
(-7.10536e-15 0 0)
(-1.06581e-13 0 0)
(-1.42109e-13 0 0)
(-1.27898e-13 0 0)
(-1.91846e-13 0 0)
(-2.13163e-13 0 0)
(-3.33955e-13 0 0)
(-5.25802e-13 0 0)
(-6.6791e-13 0 0)
(-4.54747e-13 0 0)
(-7.17648e-13 0 0)
(-8.66862e-13 0 0)
(-7.03437e-13 0 0)
(-8.81073e-13 0 0)
(-4.40537e-13 0 0)
(-5.8975e-13 0 0)
(-6.60805e-13 0 0)
(-5.54223e-13 0 0)
(-3.83693e-13 0 0)
(-2.91323e-13 0 0)
(-2.13163e-13 0 0)
(-1.49214e-13 0 0)
(-6.39489e-14 0 0)
(-2.13163e-14 0 0)
(-2.84217e-14 0 0)
(-9.23705e-14 0 0)
(3.55271e-14 0 0)
(4.26327e-14 0 0)
(2.13161e-14 0 0)
(-4.26324e-14 0 0)
(-3.41061e-13 0 0)
(-5.25802e-13 0 0)
(-3.62377e-13 0 0)
(-2.41585e-13 0 0)
(-2.77112e-13 0 0)
(-1.42109e-13 0 0)
(-8.5265e-14 0 0)
(-1.4211e-14 0 0)
(-2.91322e-13 0 0)
(-3.83693e-13 0 0)
(-1.56319e-13 0 0)
(-1.20792e-13 0 0)
(-1.13687e-13 0 0)
(-1.98952e-13 0 0)
(-1.77636e-13 0 0)
(-3.05533e-13 0 0)
(-1.35003e-13 0 0)
(-3.33955e-13 0 0)
(-2.06057e-13 0 0)
(2.70006e-13 0 0)
(1.91846e-13 0 0)
(4.9738e-14 0 0)
(-1.42108e-13 0 0)
(-4.68958e-13 0 0)
(-5.68434e-13 0 0)
(-3.55271e-13 0 0)
(-7.81597e-14 0 0)
(1.98952e-13 0 0)
(2.55795e-13 0 0)
(3.90798e-13 0 0)
(-1.42108e-13 0 0)
(-2.27374e-13 0 0)
(-1.98952e-13 0 0)
(-3.48166e-13 0 0)
(-1.84741e-13 0 0)
(-3.62377e-13 0 0)
(-4.90275e-13 0 0)
(-3.69482e-13 0 0)
(-4.33431e-13 0 0)
(-3.69482e-13 0 0)
(-1.98952e-13 0 0)
(-4.76064e-13 0 0)
(-4.40536e-13 0 0)
(-5.18696e-13 0 0)
(-6.18172e-13 0 0)
(-5.54223e-13 0 0)
(-4.26326e-13 0 0)
(-2.4869e-13 0 0)
(-7.10543e-14 0 0)
(-9.94759e-14 0 0)
(-4.40537e-13 0 0)
(-4.76064e-13 0 0)
(-4.83169e-13 0 0)
(-5.32907e-13 0 0)
(-7.24753e-13 0 0)
(-7.31859e-13 0 0)
(-6.39488e-13 0 0)
(-6.82121e-13 0 0)
(-7.95808e-13 0 0)
(-7.17648e-13 0 0)
(-5.7554e-13 0 0)
(-9.30811e-13 0 0)
(-1.1795e-12 0 0)
(-1.20082e-12 0 0)
(-1.26477e-12 0 0)
(-1.49925e-12 0 0)
(-1.86162e-12 0 0)
(-1.81899e-12 0 0)
(-1.91136e-12 0 0)
(-2.16005e-12 0 0)
(-2.089e-12 0 0)
(-2.12452e-12 0 0)
(-2.04636e-12 0 0)
(-1.66267e-12 0 0)
(-1.22213e-12 0 0)
(-8.88178e-13 0 0)
(-3.76588e-13 0 0)
(4.90275e-13 0 0)
(1.88294e-12 0 0)
(5.33618e-12 0 0)
(1.3479e-11 0 0)
(3.31895e-11 0 0)
(7.94529e-11 0 0)
(1.88173e-10 0 0)
(4.39904e-10 0 0)
(1.01556e-09 0 0)
(2.31958e-09 0 0)
(5.23841e-09 0 0)
(1.16951e-08 0 0)
(2.58111e-08 0 0)
(5.62985e-08 0 0)
(1.21333e-07 0 0)
(2.58315e-07 0 0)
(5.43124e-07 0 0)
(1.12751e-06 0 0)
(2.31042e-06 0 0)
(4.67196e-06 0 0)
(9.32001e-06 0 0)
(1.83365e-05 0 0)
(3.55684e-05 0 0)
(6.80026e-05 0 0)
(0.000128102 0 0)
(0.000237691 0 0)
(0.000434252 0 0)
(0.000780885 0 0)
(0.00138162 0 0)
(0.00240428 0 0)
(0.00411343 0 0)
(0.00691636 0 0)
(0.0114244 0 0)
(0.0185311 0 0)
(0.0295059 0 0)
(0.0460993 0 0)
(0.0706487 0 0)
(0.106169 0 0)
(0.156405 0 0)
(0.225822 0 0)
(0.319508 0 0)
(0.442963 0 0)
(0.601781 0 0)
(0.801235 0 0)
(1.04581 0 0)
(1.33873 0 0)
(1.68158 0 0)
(2.07411 0 0)
(2.51413 0 0)
(2.9978 0 0)
(3.51996 0 0)
(4.07467 0 0)
(4.65582 0 0)
(5.25761 0 0)
(5.87492 0 0)
(6.5036 0 0)
(7.14045 0 0)
(7.78316 0 0)
(8.43016 0 0)
(9.08042 0 0)
(9.73326 0 0)
(10.3883 0 0)
(11.0452 0 0)
(11.7039 0 0)
(12.3643 0 0)
(13.0262 0 0)
(13.6898 0 0)
(14.3549 0 0)
(15.0216 0 0)
(15.6899 0 0)
(16.3598 0 0)
(17.0315 0 0)
(17.7049 0 0)
(18.3802 0 0)
(19.0574 0 0)
(19.7366 0 0)
(20.418 0 0)
(21.1016 0 0)
(21.7876 0 0)
(22.476 0 0)
(23.167 0 0)
(23.8607 0 0)
(24.5573 0 0)
(25.2568 0 0)
(25.9593 0 0)
(26.6649 0 0)
(27.3739 0 0)
(28.0861 0 0)
(28.8019 0 0)
(29.5209 0 0)
(30.2443 0 0)
(30.9687 0 0)
(31.7029 0 0)
(32.4263 0 0)
(33.1856 0 0)
(33.8836 0 0)
(34.7078 0 0)
(35.3277 0 0)
(36.2698 0 0)
(36.7816 0 0)
(37.8071 0 0)
(38.2991 0 0)
(39.282 0 0)
(39.7529 0 0)
(41.2194 0 0)
)
;

boundaryField
{
    sideLeft
    {
        type            symmetryPlane;
    }
    sideRight
    {
        type            myWaveTransmissive;
        phi             phi.air;
        rho             rho.air;
        psi             thermo:psi.air;
        gamma           1.4;
        fieldInf        (0 0 0);
        lInf            10;
        value           uniform (40.9014 0 0);
    }
    topbottom
    {
        type            empty;
    }
    frontback
    {
        type            empty;
    }
}


// ************************************************************************* //
