/*--------------------------------*- C++ -*----------------------------------*\
| =========                 |                                                 |
| \\      /  F ield         | OpenFOAM: The Open Source CFD Toolbox           |
|  \\    /   O peration     | Version:  2.4.0                                 |
|   \\  /    A nd           | Web:      www.OpenFOAM.org                      |
|    \\/     M anipulation  |                                                 |
\*---------------------------------------------------------------------------*/
FoamFile
{
    version     2.0;
    format      ascii;
    class       volVectorField;
    location    "0.02";
    object      U.waterMean;
}
// * * * * * * * * * * * * * * * * * * * * * * * * * * * * * * * * * * * * * //

dimensions      [0 1 -1 0 0 0 0];

internalField   nonuniform List<vector> 
1000
(
(-6.99529e-14 0 0)
(-5.79803e-14 0 0)
(-5.65947e-14 0 0)
(-4.08562e-14 0 0)
(-1.00648e-13 0 0)
(9.27252e-15 0 0)
(-3.52429e-14 0 0)
(-1.10137e-15 0 0)
(1.38558e-15 0 0)
(-4.76064e-15 0 0)
(-5.89753e-15 0 0)
(-4.69313e-14 0 0)
(8.13563e-15 0 0)
(-1.22923e-14 0 0)
(3.13705e-14 0 0)
(2.98783e-14 0 0)
(1.4353e-14 0 0)
(4.99156e-14 0 0)
(4.07496e-14 0 0)
(-6.39481e-15 0 0)
(6.45883e-14 0 0)
(-1.36779e-14 0 0)
(1.85451e-14 0 0)
(-6.67555e-14 0 0)
(-5.00933e-14 0 0)
(-5.80513e-14 0 0)
(-4.72156e-14 0 0)
(-4.32366e-14 0 0)
(-1.14255e-13 0 0)
(-9.98319e-15 0 0)
(-6.55475e-14 0 0)
(-5.04841e-14 0 0)
(6.35929e-15 0 0)
(-2.10675e-14 0 0)
(1.94333e-14 0 0)
(-8.1215e-14 0 0)
(-1.32517e-14 0 0)
(-1.0683e-13 0 0)
(-4.87077e-14 0 0)
(-8.14282e-14 0 0)
(-6.92785e-15 0 0)
(-3.16902e-14 0 0)
(-1.48859e-14 0 0)
(-2.35545e-14 0 0)
(-1.66978e-14 0 0)
(-3.08731e-14 0 0)
(-4.08206e-14 0 0)
(-1.22924e-14 0 0)
(2.30926e-14 0 0)
(4.79617e-15 0 0)
(-3.62377e-14 0 0)
(2.56861e-14 0 0)
(-3.26844e-15 0 0)
(6.86384e-14 0 0)
(5.54224e-14 0 0)
(1.19265e-13 0 0)
(1.14113e-13 0 0)
(1.42073e-13 0 0)
(9.69536e-14 0 0)
(1.32658e-13 0 0)
(1.058e-13 0 0)
(1.44666e-13 0 0)
(1.40012e-13 0 0)
(1.24771e-13 0 0)
(2.0556e-13 0 0)
(1.71703e-13 0 0)
(1.83178e-13 0 0)
(1.40901e-13 0 0)
(1.18412e-13 0 0)
(1.66658e-13 0 0)
(4.14247e-14 0 0)
(1.05373e-13 0 0)
(1.79058e-14 0 0)
(5.73408e-14 0 0)
(8.12505e-14 0 0)
(8.02923e-15 0 0)
(1.33156e-13 0 0)
(3.12284e-14 0 0)
(8.69349e-14 0 0)
(4.74287e-14 0 0)
(4.74998e-14 0 0)
(7.57083e-14 0 0)
(2.29151e-14 0 0)
(7.53886e-14 0 0)
(5.41434e-14 0 0)
(8.24229e-14 0 0)
(2.2169e-14 0 0)
(2.31992e-14 0 0)
(-1.65912e-14 0 0)
(-7.56372e-14 0 0)
(4.65402e-15 0 0)
(-1.93268e-14 0 0)
(-3.73034e-14 0 0)
(2.75335e-14 0 0)
(6.36646e-14 0 0)
(9.15534e-14 0 0)
(1.38201e-14 0 0)
(6.78212e-14 0 0)
(5.68438e-15 0 0)
(-1.12976e-14 0 0)
(-6.19238e-14 0 0)
(-5.21539e-14 0 0)
(-7.80886e-14 0 0)
(-7.68097e-14 0 0)
(-1.32907e-13 0 0)
(-1.62146e-13 0 0)
(-1.19798e-13 0 0)
(-2.12381e-13 0 0)
(-1.96287e-13 0 0)
(-2.30607e-13 0 0)
(-2.42579e-13 0 0)
(-2.24141e-13 0 0)
(-2.51425e-13 0 0)
(-1.80265e-13 0 0)
(-2.09326e-13 0 0)
(-2.39808e-13 0 0)
(-1.42961e-13 0 0)
(-1.43849e-13 0 0)
(-8.4981e-14 0 0)
(-9.9476e-14 0 0)
(-9.01679e-14 0 0)
(-5.47829e-14 0 0)
(-5.4392e-14 0 0)
(-4.15667e-14 0 0)
(-2.29861e-14 0 0)
(-8.27784e-15 0 0)
(-3.13705e-14 0 0)
(-1.84386e-14 0 0)
(2.48669e-16 0 0)
(-3.30402e-14 0 0)
(4.12116e-15 0 0)
(-1.48859e-14 0 0)
(-2.51177e-14 0 0)
(-4.44093e-15 0 0)
(-1.81543e-14 0 0)
(-3.26139e-14 0 0)
(-4.5155e-14 0 0)
(-4.39115e-14 0 0)
(7.4251e-15 0 0)
(-2.34123e-14 0 0)
(4.44799e-14 0 0)
(1.38912e-14 0 0)
(1.39266e-14 0 0)
(7.14093e-15 0 0)
(-5.1514e-15 0 0)
(3.35731e-14 0 0)
(-2.6894e-14 0 0)
(-2.01084e-14 0 0)
(-1.62359e-14 0 0)
(-2.87415e-14 0 0)
(-6.11067e-14 0 0)
(-3.44258e-14 0 0)
(-7.37188e-14 0 0)
(-4.14246e-14 0 0)
(-1.58096e-14 0 0)
(-1.35714e-14 0 0)
(3.5385e-14 0 0)
(-3.58822e-15 0 0)
(-1.11555e-14 0 0)
(-2.64677e-14 0 0)
(-4.40181e-14 0 0)
(-1.48148e-14 0 0)
(3.55281e-16 0 0)
(6.92779e-14 0 0)
(7.15872e-14 0 0)
(6.5441e-14 0 0)
(1.1859e-13 0 0)
(9.34719e-14 0 0)
(8.65441e-14 0 0)
(5.23315e-14 0 0)
(6.38067e-14 0 0)
(3.68061e-14 0 0)
(4.81392e-14 0 0)
(2.16716e-14 0 0)
(-5.5067e-14 0 0)
(1.82253e-14 0 0)
(-8.81428e-14 0 0)
(-4.043e-14 0 0)
(-1.27613e-13 0 0)
(-8.21032e-14 0 0)
(-7.88703e-14 0 0)
(-7.33991e-14 0 0)
(-7.38254e-14 0 0)
(-7.81952e-14 0 0)
(-2.66809e-14 0 0)
(-5.05551e-14 0 0)
(1.15107e-14 0 0)
(-1.11129e-13 0 0)
(1.71595e-14 0 0)
(-8.95994e-14 0 0)
(-2.45848e-14 0 0)
(-6.52988e-14 0 0)
(1.34292e-14 0 0)
(-2.71783e-14 0 0)
(-5.34328e-14 0 0)
(-1.90781e-14 0 0)
(-6.14974e-14 0 0)
(-4.61143e-14 0 0)
(-8.74322e-14 0 0)
(-2.56151e-14 0 0)
(-4.35918e-14 0 0)
(-6.99174e-14 0 0)
(-7.9936e-14 0 0)
(-2.52598e-14 0 0)
(-2.34834e-14 0 0)
(-1.00186e-14 0 0)
(2.37676e-14 0 0)
(-3.63087e-14 0 0)
(1.80123e-14 0 0)
(1.60938e-14 0 0)
(8.89599e-14 0 0)
(5.49961e-14 0 0)
(1.16742e-13 0 0)
(1.20579e-13 0 0)
(1.19869e-13 0 0)
(1.12585e-13 0 0)
(6.2741e-14 0 0)
(9.21929e-14 0 0)
(1.25057e-14 0 0)
(1.10134e-13 0 0)
(5.92237e-14 0 0)
(5.43565e-14 0 0)
(4.39826e-14 0 0)
(4.54747e-14 0 0)
(3.87246e-15 0 0)
(4.65406e-14 0 0)
(6.66844e-14 0 0)
(4.60432e-14 0 0)
(1.10276e-13 0 0)
(6.537e-14 0 0)
(4.27391e-14 0 0)
(1.5774e-14 0 0)
(-3.49586e-14 0 0)
(4.66826e-14 0 0)
(-4.76058e-15 0 0)
(4.5901e-14 0 0)
(-2.28794e-14 0 0)
(-4.83168e-15 0 0)
(-2.38032e-14 0 0)
(-6.39488e-14 0 0)
(-6.43046e-15 0 0)
(-7.02371e-14 0 0)
(-1.02638e-13 0 0)
(-2.63967e-14 0 0)
(-3.96128e-14 0 0)
(-4.16733e-14 0 0)
(-3.95417e-14 0 0)
(-9.37917e-15 0 0)
(-3.69484e-15 0 0)
(1.93267e-14 0 0)
(-8.17479e-14 0 0)
(4.12104e-15 0 0)
(-9.02389e-14 0 0)
(-1.25553e-13 0 0)
(-9.93694e-14 0 0)
(-1.27969e-13 0 0)
(-6.44818e-14 0 0)
(-7.91189e-14 0 0)
(-2.0144e-14 0 0)
(-1.34257e-13 0 0)
(-6.14629e-15 0 0)
(-1.08749e-13 0 0)
(-5.67724e-14 0 0)
(-9.00968e-14 0 0)
(-1.25766e-13 0 0)
(-7.14451e-14 0 0)
(-1.16849e-13 0 0)
(-9.4218e-14 0 0)
(-1.07221e-13 0 0)
(-1.20295e-13 0 0)
(-1.34435e-13 0 0)
(-9.78773e-14 0 0)
(-9.08429e-14 0 0)
(-9.37561e-14 0 0)
(-4.76064e-14 0 0)
(-3.336e-14 0 0)
(-4.87787e-14 0 0)
(5.05195e-14 0 0)
(9.48577e-15 0 0)
(4.30234e-14 0 0)
(4.5759e-14 0 0)
(9.48219e-14 0 0)
(5.68789e-14 0 0)
(2.82442e-14 0 0)
(1.34541e-13 0 0)
(4.66471e-14 0 0)
(1.04592e-13 0 0)
(2.89191e-14 0 0)
(7.41451e-14 0 0)
(5.73053e-14 0 0)
(6.58673e-14 0 0)
(5.55289e-14 0 0)
(2.19203e-14 0 0)
(2.47624e-14 0 0)
(7.88704e-15 0 0)
(7.49267e-14 0 0)
(4.62919e-14 0 0)
(1.15783e-13 0 0)
(8.18545e-14 0 0)
(3.90799e-14 0 0)
(9.83746e-14 0 0)
(8.7006e-14 0 0)
(1.42464e-13 0 0)
(1.35323e-13 0 0)
(7.61347e-14 0 0)
(1.66658e-13 0 0)
(8.33822e-14 0 0)
(1.19087e-13 0 0)
(4.59722e-14 0 0)
(5.96501e-14 0 0)
(6.81055e-14 0 0)
(5.25802e-14 0 0)
(8.34887e-14 0 0)
(4.30944e-14 0 0)
(7.3328e-14 0 0)
(5.59908e-14 0 0)
(6.02185e-14 0 0)
(8.36309e-14 0 0)
(8.21743e-14 0 0)
(8.14993e-14 0 0)
(8.04334e-14 0 0)
(5.98633e-14 0 0)
(1.20153e-13 0 0)
(2.89191e-14 0 0)
(7.10187e-14 0 0)
(1.50635e-14 0 0)
(-1.05515e-14 0 0)
(7.42512e-15 0 0)
(-1.84741e-14 0 0)
(-1.34292e-14 0 0)
(9.59228e-16 0 0)
(-1.09779e-14 0 0)
(-2.50111e-14 0 0)
(1.75148e-14 0 0)
(-4.29522e-14 0 0)
(4.74286e-14 0 0)
(3.5537e-17 0 0)
(-4.47639e-15 0 0)
(1.39266e-14 0 0)
(4.06785e-14 0 0)
(2.07124e-14 0 0)
(8.29913e-14 0 0)
(1.32161e-14 0 0)
(3.06244e-14 0 0)
(6.12132e-14 0 0)
(1.72662e-14 0 0)
(8.35598e-14 0 0)
(-1.64845e-14 0 0)
(6.82476e-14 0 0)
(-2.629e-14 0 0)
(4.45865e-14 0 0)
(-2.26307e-14 0 0)
(3.71614e-14 0 0)
(3.58114e-14 0 0)
(9.79127e-14 0 0)
(8.01847e-14 0 0)
(-3.07309e-14 0 0)
(4.37338e-14 0 0)
(-2.03925e-14 0 0)
(8.70411e-15 0 0)
(-2.46558e-14 0 0)
(1.87938e-14 0 0)
(-6.7146e-15 0 0)
(3.58114e-14 0 0)
(7.58504e-14 0 0)
(2.76401e-14 0 0)
(2.32703e-14 0 0)
(3.59179e-14 0 0)
(2.04281e-14 0 0)
(3.29692e-14 0 0)
(7.53175e-14 0 0)
(9.35429e-14 0 0)
(7.56728e-14 0 0)
(8.67217e-14 0 0)
(3.62733e-14 0 0)
(1.06652e-13 0 0)
(5.31131e-14 0 0)
(7.80531e-14 0 0)
(3.26139e-14 0 0)
(5.61684e-14 0 0)
(2.78178e-14 0 0)
(1.01892e-13 0 0)
(6.43397e-14 0 0)
(6.8674e-14 0 0)
(8.19966e-14 0 0)
(1.28609e-14 0 0)
(6.81055e-14 0 0)
(1.08003e-14 0 0)
(7.2049e-14 0 0)
(-3.18678e-14 0 0)
(-1.81544e-14 0 0)
(-5.82646e-15 0 0)
(-1.91847e-14 0 0)
(-6.19948e-14 0 0)
(4.01448e-15 0 0)
(-6.12843e-14 0 0)
(-4.68603e-14 0 0)
(-8.22808e-14 0 0)
(-2.70007e-14 0 0)
(-3.53495e-14 0 0)
(-9.13047e-14 0 0)
(-6.91714e-14 0 0)
(-1.43068e-13 0 0)
(-6.83188e-14 0 0)
(-1.28253e-13 0 0)
(-1.56533e-13 0 0)
(-9.0914e-14 0 0)
(-1.46692e-13 0 0)
(-8.73613e-14 0 0)
(-1.21467e-13 0 0)
(-1.0008e-13 0 0)
(-1.00293e-13 0 0)
(-1.2129e-13 0 0)
(-1.10134e-13 0 0)
(-1.35891e-13 0 0)
(-1.11804e-13 0 0)
(-1.16742e-13 0 0)
(-6.87095e-14 0 0)
(-1.54721e-13 0 0)
(-4.06431e-14 0 0)
(-1.00897e-13 0 0)
(-1.19194e-13 0 0)
(-1.72839e-13 0 0)
(-1.35891e-13 0 0)
(-1.5838e-13 0 0)
(-1.68363e-13 0 0)
(-1.07185e-13 0 0)
(-9.15535e-14 0 0)
(-8.01493e-14 0 0)
(-1.72164e-13 0 0)
(-5.51027e-14 0 0)
(-1.61719e-13 0 0)
(-1.02993e-13 0 0)
(-9.1589e-14 0 0)
(-1.24913e-13 0 0)
(-1.61862e-13 0 0)
(-1.49569e-13 0 0)
(-1.6037e-13 0 0)
(-1.43778e-13 0 0)
(-1.13012e-13 0 0)
(-9.96181e-14 0 0)
(-7.87282e-14 0 0)
(-1.12479e-13 0 0)
(-2.65743e-14 0 0)
(-6.30962e-14 0 0)
(-1.47438e-14 0 0)
(-3.58113e-14 0 0)
(-3.55273e-15 0 0)
(-2.64322e-14 0 0)
(-2.58992e-14 0 0)
(-6.43044e-15 0 0)
(-1.78701e-14 0 0)
(5.23314e-14 0 0)
(4.52971e-14 0 0)
(-2.73558e-15 0 0)
(1.31805e-14 0 0)
(-1.12621e-14 0 0)
(-4.83172e-15 0 0)
(1.00186e-14 0 0)
(-5.06261e-14 0 0)
(1.66621e-14 0 0)
(-8.39861e-14 0 0)
(-5.73763e-14 0 0)
(-8.92086e-14 0 0)
(-9.37917e-14 0 0)
(-1.19265e-13 0 0)
(-1.36389e-13 0 0)
(-5.01288e-14 0 0)
(-2.99139e-14 0 0)
(-7.3399e-14 0 0)
(-1.91492e-14 0 0)
(-8.53717e-14 0 0)
(-4.06075e-14 0 0)
(-6.45529e-14 0 0)
(-1.38094e-13 0 0)
(-4.448e-14 0 0)
(-9.23706e-14 0 0)
(-5.06617e-14 0 0)
(-4.81748e-14 0 0)
(-4.79617e-15 0 0)
(-3.94351e-14 0 0)
(-1.90071e-14 0 0)
(-4.6434e-14 0 0)
(-1.16529e-14 0 0)
(9.23706e-15 0 0)
(-4.08917e-14 0 0)
(3.61666e-14 0 0)
(-7.85145e-15 0 0)
(2.11031e-14 0 0)
(2.55085e-14 0 0)
(4.78195e-14 0 0)
(4.30589e-14 0 0)
(1.43174e-14 0 0)
(7.67386e-15 0 0)
(-8.17125e-15 0 0)
(-3.96839e-14 0 0)
(-8.62954e-14 0 0)
(-9.74154e-14 0 0)
(-1.04876e-13 0 0)
(-5.27223e-14 0 0)
(-4.88143e-14 0 0)
(-5.01999e-14 0 0)
(-5.36104e-14 0 0)
(-5.40723e-14 0 0)
(-2.01084e-14 0 0)
(-2.45848e-14 0 0)
(-6.77147e-14 0 0)
(5.68428e-15 0 0)
(-1.84741e-14 0 0)
(1.73727e-14 0 0)
(2.02505e-14 0 0)
(1.50635e-14 0 0)
(3.69837e-14 0 0)
(2.12807e-14 0 0)
(-2.73914e-14 0 0)
(1.03384e-14 0 0)
(-1.88295e-15 0 0)
(2.46558e-14 0 0)
(4.68247e-14 0 0)
(4.23129e-14 0 0)
(5.91882e-14 0 0)
(7.40386e-14 0 0)
(6.96687e-14 0 0)
(1.01856e-13 0 0)
(8.64375e-14 0 0)
(1.0683e-13 0 0)
(1.05729e-13 0 0)
(9.29035e-14 0 0)
(1.44382e-13 0 0)
(6.74661e-14 0 0)
(1.49569e-13 0 0)
(7.90835e-14 0 0)
(1.61187e-13 0 0)
(1.33404e-13 0 0)
(1.81295e-13 0 0)
(1.47402e-13 0 0)
(1.76357e-13 0 0)
(1.29603e-13 0 0)
(1.93979e-14 0 0)
(4.15312e-14 0 0)
(-3.88666e-14 0 0)
(2.55439e-14 0 0)
(-4.25615e-14 0 0)
(-1.89715e-14 0 0)
(-2.2986e-14 0 0)
(-2.1565e-14 0 0)
(6.00404e-15 0 0)
(-4.58297e-15 0 0)
(-5.73763e-14 0 0)
(-1.56675e-14 0 0)
(-5.10525e-14 0 0)
(-5.50315e-14 0 0)
(-6.10357e-14 0 0)
(-8.96705e-14 0 0)
(-2.79244e-14 0 0)
(-6.05382e-14 0 0)
(-4.26357e-16 0 0)
(-5.60263e-14 0 0)
(2.35189e-14 0 0)
(-6.28832e-15 0 0)
(-3.41416e-14 0 0)
(-1.08713e-14 0 0)
(-8.48388e-14 0 0)
(-4.10694e-14 0 0)
(-8.70414e-14 0 0)
(-7.71294e-14 0 0)
(4.72506e-15 0 0)
(-6.53701e-15 0 0)
(9.20155e-15 0 0)
(3.12994e-14 0 0)
(4.89564e-14 0 0)
(6.25278e-15 0 0)
(-1.25766e-14 0 0)
(-3.55271e-14 0 0)
(-2.70006e-14 0 0)
(-5.21893e-14 0 0)
(-4.448e-14 0 0)
(-6.29896e-14 0 0)
(-6.00053e-14 0 0)
(-3.41061e-14 0 0)
(-3.09089e-15 0 0)
(-2.55085e-14 0 0)
(-4.18864e-14 0 0)
(1.35358e-14 0 0)
(-2.52598e-14 0 0)
(-4.04654e-14 0 0)
(-7.95807e-14 0 0)
(-6.43752e-14 0 0)
(-5.96856e-14 0 0)
(-9.84457e-14 0 0)
(-1.05977e-13 0 0)
(-5.66302e-14 0 0)
(-7.69163e-14 0 0)
(-9.22284e-14 0 0)
(-8.22098e-14 0 0)
(-9.01324e-14 0 0)
(-1.27152e-13 0 0)
(-4.16023e-14 0 0)
(-5.24025e-14 0 0)
(-7.61346e-14 0 0)
(-5.8158e-14 0 0)
(-7.05924e-14 0 0)
(-8.75033e-14 0 0)
(-7.44649e-14 0 0)
(-5.38947e-14 0 0)
(-6.78213e-14 0 0)
(-2.27729e-14 0 0)
(-4.14247e-14 0 0)
(-7.70228e-14 0 0)
(-4.02167e-14 0 0)
(-2.67875e-14 0 0)
(-1.03739e-14 0 0)
(-2.38032e-14 0 0)
(1.75859e-14 0 0)
(2.5473e-14 0 0)
(6.45883e-14 0 0)
(3.50653e-14 0 0)
(1.53264e-13 0 0)
(8.99547e-14 0 0)
(4.78196e-14 0 0)
(8.35954e-14 0 0)
(1.22498e-13 0 0)
(1.16742e-13 0 0)
(1.24167e-13 0 0)
(1.33227e-13 0 0)
(1.51061e-13 0 0)
(7.73781e-14 0 0)
(1.08322e-13 0 0)
(9.66694e-14 0 0)
(1.63958e-13 0 0)
(1.50386e-13 0 0)
(1.41611e-13 0 0)
(1.90319e-13 0 0)
(1.27969e-13 0 0)
(1.75468e-13 0 0)
(1.02389e-13 0 0)
(2.32205e-13 0 0)
(1.46834e-13 0 0)
(1.87192e-13 0 0)
(1.51594e-13 0 0)
(1.97495e-13 0 0)
(1.83888e-13 0 0)
(2.224e-13 0 0)
(2.05347e-13 0 0)
(1.54721e-13 0 0)
(1.51061e-13 0 0)
(1.91456e-13 0 0)
(1.73515e-13 0 0)
(1.28679e-13 0 0)
(1.50955e-13 0 0)
(1.6712e-13 0 0)
(1.8467e-13 0 0)
(1.72022e-13 0 0)
(1.58877e-13 0 0)
(1.03206e-13 0 0)
(1.55325e-13 0 0)
(3.78365e-14 0 0)
(1.4051e-13 0 0)
(8.94218e-14 0 0)
(1.10454e-13 0 0)
(7.31859e-14 0 0)
(9.71312e-14 0 0)
(9.73088e-14 0 0)
(2.66455e-14 0 0)
(9.90496e-14 0 0)
(5.81224e-14 0 0)
(6.55831e-14 0 0)
(3.09797e-14 0 0)
(7.26174e-14 0 0)
(6.46239e-14 0 0)
(3.10152e-14 0 0)
(4.61142e-14 0 0)
(-1.28252e-14 0 0)
(5.99697e-14 0 0)
(-1.34292e-14 0 0)
(-1.0374e-14 0 0)
(-8.48033e-14 0 0)
(-1.00755e-13 0 0)
(-8.06111e-14 0 0)
(-5.63461e-14 0 0)
(-8.50164e-14 0 0)
(-8.91376e-14 0 0)
(-1.1557e-13 0 0)
(-8.40217e-14 0 0)
(-1.37348e-13 0 0)
(-1.911e-13 0 0)
(-1.33511e-13 0 0)
(-1.94191e-13 0 0)
(-8.45191e-14 0 0)
(-1.66125e-13 0 0)
(-7.19426e-14 0 0)
(-1.64348e-13 0 0)
(-1.30917e-13 0 0)
(-1.11591e-13 0 0)
(-7.7236e-14 0 0)
(-6.48726e-14 0 0)
(-8.81073e-14 0 0)
(-4.05365e-14 0 0)
(-4.74643e-14 0 0)
(-9.28324e-14 0 0)
(-2.72494e-14 0 0)
(-4.51195e-14 0 0)
(-8.39506e-14 0 0)
(-6.74305e-14 0 0)
(-5.24025e-14 0 0)
(-6.37712e-14 0 0)
(-1.53832e-13 0 0)
(-6.25989e-14 0 0)
(-1.02922e-13 0 0)
(-4.87433e-14 0 0)
(-1.1287e-13 0 0)
(-7.63123e-14 0 0)
(-8.9635e-14 0 0)
(-1.02105e-13 0 0)
(-6.42686e-14 0 0)
(-2.18137e-14 0 0)
(-6.07517e-15 0 0)
(-6.44106e-14 0 0)
(5.12301e-14 0 0)
(-3.85113e-14 0 0)
(3.17967e-14 0 0)
(3.55269e-15 0 0)
(-5.15143e-14 0 0)
(3.18322e-14 0 0)
(8.17129e-15 0 0)
(4.40892e-14 0 0)
(3.7268e-14 0 0)
(2.9381e-14 0 0)
(2.24176e-14 0 0)
(-4.7251e-15 0 0)
(1.16173e-14 0 0)
(-1.13687e-14 0 0)
(-4.23484e-14 0 0)
(-5.86908e-14 0 0)
(-3.09086e-14 0 0)
(-5.62749e-14 0 0)
(2.2915e-14 0 0)
(3.979e-15 0 0)
(-4.06785e-14 0 0)
(1.13331e-14 0 0)
(3.30757e-14 0 0)
(-8.24228e-15 0 0)
(-4.84945e-14 0 0)
(3.606e-14 0 0)
(-2.56151e-14 0 0)
(-5.53157e-14 0 0)
(7.85143e-15 0 0)
(-3.15481e-14 0 0)
(-1.28253e-14 0 0)
(-6.71463e-14 0 0)
(-5.98988e-14 0 0)
(-8.05755e-14 0 0)
(-4.03233e-14 0 0)
(-6.86029e-14 0 0)
(-5.30065e-14 0 0)
(-3.95062e-14 0 0)
(-3.99325e-14 0 0)
(9.41464e-15 0 0)
(-2.70006e-14 0 0)
(-1.78346e-14 0 0)
(-1.25411e-14 0 0)
(7.88705e-15 0 0)
(2.67874e-14 0 0)
(5.46407e-14 0 0)
(-2.82795e-14 0 0)
(5.30064e-14 0 0)
(-7.74488e-15 0 0)
(-1.92912e-14 0 0)
(-2.07124e-14 0 0)
(-5.72342e-14 0 0)
(-8.73967e-14 0 0)
(-3.79075e-14 0 0)
(-1.04379e-13 0 0)
(-9.04522e-14 0 0)
(-1.31237e-13 0 0)
(-6.92779e-14 0 0)
(-4.93827e-14 0 0)
(-6.08935e-14 0 0)
(5.57768e-15 0 0)
(-2.68585e-14 0 0)
(1.17235e-15 0 0)
(-3.91509e-14 0 0)
(-2.43361e-14 0 0)
(-7.53886e-14 0 0)
(-7.2049e-14 0 0)
(-3.47101e-14 0 0)
(-7.91189e-14 0 0)
(-7.97229e-14 0 0)
(-9.6989e-14 0 0)
(-7.03438e-14 0 0)
(-7.80531e-14 0 0)
(-4.66116e-14 0 0)
(-5.20472e-14 0 0)
(4.1993e-14 0 0)
(7.38973e-15 0 0)
(9.9618e-14 0 0)
(6.39133e-14 0 0)
(9.31877e-14 0 0)
(7.30437e-14 0 0)
(-2.87058e-14 0 0)
(7.99005e-14 0 0)
(1.43175e-14 0 0)
(9.51416e-14 0 0)
(2.26663e-14 0 0)
(1.37845e-14 0 0)
(2.91322e-14 0 0)
(2.85638e-14 0 0)
(4.16378e-14 0 0)
(4.4409e-15 0 0)
(-2.88836e-14 0 0)
(5.93301e-15 0 0)
(-1.74083e-14 0 0)
(-4.52615e-14 0 0)
(-4.37694e-14 0 0)
(-1.8936e-14 0 0)
(-8.12505e-14 0 0)
(9.59141e-16 0 0)
(-1.08891e-13 0 0)
(-7.18715e-14 0 0)
(-1.31521e-13 0 0)
(-1.49072e-13 0 0)
(-1.76605e-13 0 0)
(-1.96607e-13 0 0)
(-1.67262e-13 0 0)
(-1.95648e-13 0 0)
(-1.37739e-13 0 0)
(-1.90994e-13 0 0)
(-1.66835e-13 0 0)
(-1.88827e-13 0 0)
(-1.49605e-13 0 0)
(-1.56213e-13 0 0)
(-1.53904e-13 0 0)
(-9.76641e-14 0 0)
(-1.28004e-13 0 0)
(-3.21521e-14 0 0)
(-1.06155e-13 0 0)
(-9.27614e-14 0 0)
(-9.63851e-14 0 0)
(-5.30065e-14 0 0)
(-7.41096e-14 0 0)
(-9.85877e-14 0 0)
(-4.0572e-14 0 0)
(-6.4091e-14 0 0)
(-3.79786e-14 0 0)
(-7.28661e-14 0 0)
(-4.36984e-14 0 0)
(-5.35394e-14 0 0)
(-1.55964e-14 0 0)
(-3.70193e-14 0 0)
(3.19742e-15 0 0)
(-6.80699e-14 0 0)
(4.90265e-15 0 0)
(-6.79633e-14 0 0)
(-2.41585e-14 0 0)
(-4.78195e-14 0 0)
(-7.10543e-14 0 0)
(-1.57386e-14 0 0)
(-6.2883e-14 0 0)
(-2.13518e-14 0 0)
(-5.60618e-14 0 0)
(-7.6561e-14 0 0)
(-6.23146e-14 0 0)
(-4.07142e-14 0 0)
(-1.11768e-13 0 0)
(-1.96466e-14 0 0)
(-1.28963e-13 0 0)
(-1.07576e-13 0 0)
(-1.17772e-13 0 0)
(-9.56746e-14 0 0)
(-1.09104e-13 0 0)
(-1.32196e-13 0 0)
(-1.44169e-13 0 0)
(-2.21689e-13 0 0)
(-1.75504e-13 0 0)
(-2.34799e-13 0 0)
(-2.42366e-13 0 0)
(-2.42189e-13 0 0)
(-2.92992e-13 0 0)
(-2.37215e-13 0 0)
(-2.98428e-13 0 0)
(-3.14699e-13 0 0)
(-2.97717e-13 0 0)
(-3.72502e-13 0 0)
(-3.13456e-13 0 0)
(-3.73319e-13 0 0)
(-3.13314e-13 0 0)
(-3.69198e-13 0 0)
(-4.30127e-13 0 0)
(-3.95772e-13 0 0)
(-4.61569e-13 0 0)
(-4.46008e-13 0 0)
(-4.57909e-13 0 0)
(-4.76099e-13 0 0)
(-5.14007e-13 0 0)
(-5.30775e-13 0 0)
(-5.31699e-13 0 0)
(-5.25304e-13 0 0)
(-4.52971e-13 0 0)
(-4.16911e-13 0 0)
(-3.18323e-14 0 0)
(7.41416e-13 0 0)
(2.77467e-12 0 0)
(7.25876e-12 0 0)
(1.77792e-11 0 0)
(4.19206e-11 0 0)
(9.68211e-11 0 0)
(2.2031e-10 0 0)
(4.94596e-10 0 0)
(1.09728e-09 0 0)
(2.40565e-09 0 0)
(5.21181e-09 0 0)
(1.11571e-08 0 0)
(2.3595e-08 0 0)
(4.92829e-08 0 0)
(1.01644e-07 0 0)
(2.06951e-07 0 0)
(4.15858e-07 0 0)
(8.24519e-07 0 0)
(1.61257e-06 0 0)
(3.11012e-06 0 0)
(5.91367e-06 0 0)
(1.10823e-05 0 0)
(2.04632e-05 0 0)
(3.7218e-05 0 0)
(6.6656e-05 0 0)
(0.000117516 0 0)
(0.000203891 0 0)
(0.000348022 0 0)
(0.000584242 0 0)
(0.000964343 0 0)
(0.00156459 0 0)
(0.00249455 0 0)
(0.00390754 0 0)
(0.00601244 0 0)
(0.00908594 0 0)
(0.013484 0 0)
(0.019651 0 0)
(0.0281246 0 0)
(0.0395342 0 0)
(0.0545929 0 0)
(0.0740809 0 0)
(0.0988217 0 0)
(0.129653 0 0)
(0.167397 0 0)
(0.212826 0 0)
(0.266642 0 0)
(0.329456 0 0)
(0.401779 0 0)
(0.484025 0 0)
(0.576515 0 0)
(0.679497 0 0)
(0.793154 0 0)
(0.917627 0 0)
(1.05302 0 0)
(1.19943 0 0)
(1.35692 0 0)
(1.52556 0 0)
(1.70541 0 0)
(1.89652 0 0)
(2.09896 0 0)
(2.31277 0 0)
(2.538 0 0)
(2.77472 0 0)
(3.02298 0 0)
(3.28283 0 0)
(3.55433 0 0)
(3.83754 0 0)
(4.13251 0 0)
(4.43932 0 0)
(4.75801 0 0)
(5.08866 0 0)
(5.43133 0 0)
(5.7861 0 0)
(6.15304 0 0)
(6.53221 0 0)
(6.92371 0 0)
(7.3276 0 0)
(7.74397 0 0)
(8.17292 0 0)
(8.61452 0 0)
(9.06886 0 0)
(9.53605 0 0)
(10.0162 0 0)
(10.5093 0 0)
(11.0156 0 0)
(11.5352 0 0)
(12.0679 0 0)
(12.6145 0 0)
(13.1736 0 0)
(13.749 0 0)
(14.3318 0 0)
(14.9421 0 0)
(15.5392 0 0)
(16.2005 0 0)
(16.7899 0 0)
(17.5276 0 0)
(18.0804 0 0)
(18.9129 0 0)
(19.3577 0 0)
(20.6719 0 0)
)
;

boundaryField
{
    sideLeft
    {
        type            symmetryPlane;
    }
    sideRight
    {
        type            calculated;
        value           uniform (20.6719 0 0);
    }
    topbottom
    {
        type            empty;
    }
    frontback
    {
        type            empty;
    }
}


// ************************************************************************* //
