/*--------------------------------*- C++ -*----------------------------------*\
| =========                 |                                                 |
| \\      /  F ield         | OpenFOAM: The Open Source CFD Toolbox           |
|  \\    /   O peration     | Version:  2.4.0                                 |
|   \\  /    A nd           | Web:      www.OpenFOAM.org                      |
|    \\/     M anipulation  |                                                 |
\*---------------------------------------------------------------------------*/
FoamFile
{
    version     2.0;
    format      ascii;
    class       volVectorField;
    location    "0.02";
    object      U.water;
}
// * * * * * * * * * * * * * * * * * * * * * * * * * * * * * * * * * * * * * //

dimensions      [0 1 -1 0 0 0 0];

internalField   nonuniform List<vector> 
1000
(
(-8.5265e-14 0 0)
(-3.19744e-13 0 0)
(-4.1922e-13 0 0)
(-2.98428e-13 0 0)
(-2.27374e-13 0 0)
(3.33955e-13 0 0)
(2.13163e-13 0 0)
(2.27374e-13 0 0)
(2.84217e-13 0 0)
(-6.39488e-14 0 0)
(-3.55272e-14 0 0)
(-1.49214e-13 0 0)
(-2.70006e-13 0 0)
(-1.42108e-14 0 0)
(-7.10549e-15 0 0)
(-9.23706e-14 0 0)
(2.84218e-14 0 0)
(7.10537e-15 0 0)
(-3.40734e-20 0 0)
(2.84218e-14 0 0)
(-1.20792e-13 0 0)
(-2.34479e-13 0 0)
(-2.20268e-13 0 0)
(-5.18696e-13 0 0)
(-5.96856e-13 0 0)
(-9.09495e-13 0 0)
(-7.67386e-13 0 0)
(-1.35003e-13 0 0)
(3.2685e-13 0 0)
(8.10019e-13 0 0)
(5.68434e-13 0 0)
(2.70006e-13 0 0)
(1.77636e-13 0 0)
(1.63425e-13 0 0)
(-4.26327e-14 0 0)
(-2.34479e-13 0 0)
(1.06581e-13 0 0)
(-1.77636e-13 0 0)
(9.94759e-14 0 0)
(1.84741e-13 0 0)
(1.84741e-13 0 0)
(-9.23705e-14 0 0)
(8.52651e-14 0 0)
(4.9738e-13 0 0)
(6.60805e-13 0 0)
(5.7554e-13 0 0)
(3.55271e-13 0 0)
(1.7053e-13 0 0)
(2.4869e-13 0 0)
(6.39488e-14 0 0)
(-3.19744e-13 0 0)
(-2.91323e-13 0 0)
(-4.83169e-13 0 0)
(-3.62377e-13 0 0)
(-4.54747e-13 0 0)
(-3.41061e-13 0 0)
(-1.91847e-13 0 0)
(-3.41061e-13 0 0)
(-2.70006e-13 0 0)
(-1.91847e-13 0 0)
(-3.83693e-13 0 0)
(-3.33955e-13 0 0)
(-3.83693e-13 0 0)
(-1.49214e-13 0 0)
(4.26324e-14 0 0)
(1.84741e-13 0 0)
(4.05009e-13 0 0)
(5.11591e-13 0 0)
(4.12115e-13 0 0)
(7.81595e-14 0 0)
(5.68436e-14 0 0)
(2.20268e-13 0 0)
(3.12639e-13 0 0)
(5.32907e-13 0 0)
(3.69482e-13 0 0)
(2.84217e-13 0 0)
(3.83693e-13 0 0)
(5.68436e-14 0 0)
(-2.77112e-13 0 0)
(-2.62901e-13 0 0)
(-7.10544e-15 0 0)
(-1.49214e-13 0 0)
(2.06058e-13 0 0)
(2.62901e-13 0 0)
(2.84217e-14 0 0)
(3.12639e-13 0 0)
(1.35003e-13 0 0)
(1.27898e-13 0 0)
(2.27374e-13 0 0)
(-4.97378e-14 0 0)
(7.10535e-15 0 0)
(2.84217e-14 0 0)
(7.10552e-15 0 0)
(2.4869e-13 0 0)
(3.12639e-13 0 0)
(4.12115e-13 0 0)
(3.19744e-13 0 0)
(4.47642e-13 0 0)
(4.12115e-13 0 0)
(3.76588e-13 0 0)
(2.55795e-13 0 0)
(2.84217e-13 0 0)
(4.90275e-13 0 0)
(4.33431e-13 0 0)
(2.91323e-13 0 0)
(2.55795e-13 0 0)
(3.55271e-13 0 0)
(2.70006e-13 0 0)
(1.13687e-13 0 0)
(-9.94759e-14 0 0)
(-3.62377e-13 0 0)
(-4.90275e-13 0 0)
(-6.18172e-13 0 0)
(-5.25802e-13 0 0)
(-5.61329e-13 0 0)
(-6.60805e-13 0 0)
(-6.18172e-13 0 0)
(-6.18172e-13 0 0)
(-8.02913e-13 0 0)
(-8.45546e-13 0 0)
(-7.38964e-13 0 0)
(-7.81597e-13 0 0)
(-4.61853e-13 0 0)
(-1.42109e-13 0 0)
(4.26326e-14 0 0)
(1.42108e-14 0 0)
(-1.77636e-13 0 0)
(-3.55271e-14 0 0)
(8.52651e-14 0 0)
(2.06057e-13 0 0)
(2.77112e-13 0 0)
(1.49214e-13 0 0)
(2.98428e-13 0 0)
(7.10542e-14 0 0)
(-1.84741e-13 0 0)
(-5.8975e-13 0 0)
(-7.4607e-13 0 0)
(-6.75016e-13 0 0)
(-6.82121e-13 0 0)
(-4.83169e-13 0 0)
(-2.98428e-13 0 0)
(-1.84741e-13 0 0)
(-1.98952e-13 0 0)
(-3.19744e-13 0 0)
(-3.12639e-13 0 0)
(-1.06582e-13 0 0)
(9.9476e-14 0 0)
(-2.13163e-14 0 0)
(-1.63425e-13 0 0)
(-1.84741e-13 0 0)
(2.84218e-14 0 0)
(4.05009e-13 0 0)
(4.9738e-13 0 0)
(6.18172e-13 0 0)
(5.40012e-13 0 0)
(1.56319e-13 0 0)
(2.13162e-14 0 0)
(-2.70006e-13 0 0)
(-3.48166e-13 0 0)
(-2.27374e-13 0 0)
(-9.94759e-14 0 0)
(1.20792e-13 0 0)
(-1.77636e-13 0 0)
(-7.81598e-14 0 0)
(2.84217e-14 0 0)
(6.39489e-14 0 0)
(-1.42109e-14 0 0)
(-1.27898e-13 0 0)
(-4.26326e-14 0 0)
(-1.49214e-13 0 0)
(4.97379e-14 0 0)
(2.91323e-13 0 0)
(4.61853e-13 0 0)
(3.33955e-13 0 0)
(-1.13687e-13 0 0)
(-2.91323e-13 0 0)
(-2.34479e-13 0 0)
(1.91846e-13 0 0)
(2.55796e-13 0 0)
(-3.85287e-20 0 0)
(-1.35003e-13 0 0)
(-1.42109e-13 0 0)
(-2.84217e-13 0 0)
(-1.63425e-13 0 0)
(-1.56319e-13 0 0)
(-2.98428e-13 0 0)
(-1.91847e-13 0 0)
(-2.77111e-13 0 0)
(-1.5632e-13 0 0)
(-2.4869e-13 0 0)
(1.06581e-13 0 0)
(-1.13687e-13 0 0)
(-1.27898e-13 0 0)
(1.42109e-14 0 0)
(-5.68434e-14 0 0)
(3.19744e-13 0 0)
(4.90275e-13 0 0)
(4.76064e-13 0 0)
(3.2685e-13 0 0)
(1.84741e-13 0 0)
(1.77636e-13 0 0)
(9.9476e-14 0 0)
(3.55271e-13 0 0)
(5.68434e-14 0 0)
(-2.55795e-13 0 0)
(-3.12639e-13 0 0)
(-1.13687e-13 0 0)
(-8.5265e-14 0 0)
(-1.42109e-14 0 0)
(2.13163e-14 0 0)
(7.10542e-14 0 0)
(3.55272e-14 0 0)
(-3.55271e-13 0 0)
(-4.33431e-13 0 0)
(-5.25802e-13 0 0)
(-5.47118e-13 0 0)
(-7.10543e-13 0 0)
(-7.88703e-13 0 0)
(-6.60805e-13 0 0)
(-5.25802e-13 0 0)
(-3.76588e-13 0 0)
(3.55271e-14 0 0)
(2.41585e-13 0 0)
(1.98952e-13 0 0)
(1.77636e-13 0 0)
(5.04485e-13 0 0)
(3.12639e-13 0 0)
(1.06582e-13 0 0)
(2.06057e-13 0 0)
(2.13163e-13 0 0)
(1.13687e-13 0 0)
(3.41061e-13 0 0)
(2.91323e-13 0 0)
(2.55795e-13 0 0)
(3.33955e-13 0 0)
(1.27898e-13 0 0)
(9.94761e-14 0 0)
(5.68434e-14 0 0)
(6.39488e-14 0 0)
(2.70006e-13 0 0)
(3.33955e-13 0 0)
(2.34479e-13 0 0)
(2.98428e-13 0 0)
(4.47642e-13 0 0)
(1.63425e-13 0 0)
(2.55795e-13 0 0)
(3.83693e-13 0 0)
(4.61853e-13 0 0)
(5.8975e-13 0 0)
(6.46594e-13 0 0)
(4.33431e-13 0 0)
(4.47642e-13 0 0)
(2.91323e-13 0 0)
(-7.81596e-14 0 0)
(2.84216e-14 0 0)
(3.55272e-14 0 0)
(-8.52652e-14 0 0)
(7.10543e-14 0 0)
(-1.62549e-19 0 0)
(-1.49214e-13 0 0)
(-8.52654e-14 0 0)
(-4.26326e-13 0 0)
(-3.76588e-13 0 0)
(-5.96856e-13 0 0)
(-4.40536e-13 0 0)
(-3.48166e-13 0 0)
(-4.26326e-13 0 0)
(-2.70006e-13 0 0)
(-2.98428e-13 0 0)
(-3.62377e-13 0 0)
(-1.63425e-13 0 0)
(2.13163e-14 0 0)
(-1.27898e-13 0 0)
(-2.13163e-13 0 0)
(-2.41585e-13 0 0)
(-7.81597e-14 0 0)
(9.94761e-14 0 0)
(2.62901e-13 0 0)
(-2.13162e-14 0 0)
(8.52651e-14 0 0)
(-1.91846e-13 0 0)
(-5.18696e-13 0 0)
(-4.47642e-13 0 0)
(-2.20268e-13 0 0)
(-5.68436e-14 0 0)
(-3.62377e-13 0 0)
(-2.84218e-14 0 0)
(1.43525e-19 0 0)
(1.49214e-13 0 0)
(1.56319e-13 0 0)
(1.42108e-14 0 0)
(2.13162e-14 0 0)
(6.39489e-14 0 0)
(-5.68434e-14 0 0)
(-1.91846e-13 0 0)
(-1.7053e-13 0 0)
(-3.55271e-13 0 0)
(-1.5632e-13 0 0)
(-1.13687e-13 0 0)
(-1.98952e-13 0 0)
(-3.76588e-13 0 0)
(-3.12639e-13 0 0)
(2.34479e-13 0 0)
(3.2685e-13 0 0)
(1.20792e-13 0 0)
(3.69482e-13 0 0)
(5.47118e-13 0 0)
(6.46594e-13 0 0)
(4.9738e-13 0 0)
(5.04485e-13 0 0)
(2.41585e-13 0 0)
(8.52652e-14 0 0)
(-8.38968e-20 0 0)
(-2.41585e-13 0 0)
(-8.52652e-14 0 0)
(7.10543e-14 0 0)
(2.70006e-13 0 0)
(1.77636e-13 0 0)
(-2.84217e-14 0 0)
(-5.68434e-14 0 0)
(1.27898e-13 0 0)
(2.34479e-13 0 0)
(4.40536e-13 0 0)
(2.55796e-13 0 0)
(9.94759e-14 0 0)
(-1.13687e-13 0 0)
(-1.42108e-14 0 0)
(3.55271e-14 0 0)
(1.13687e-13 0 0)
(3.90799e-13 0 0)
(3.76588e-13 0 0)
(4.05009e-13 0 0)
(2.41585e-13 0 0)
(4.90274e-13 0 0)
(2.55796e-13 0 0)
(-7.81599e-14 0 0)
(1.13687e-13 0 0)
(3.97904e-13 0 0)
(3.62377e-13 0 0)
(2.62901e-13 0 0)
(4.1922e-13 0 0)
(6.32383e-13 0 0)
(5.54223e-13 0 0)
(4.68958e-13 0 0)
(5.18696e-13 0 0)
(4.83169e-13 0 0)
(4.76063e-13 0 0)
(2.06058e-13 0 0)
(1.91846e-13 0 0)
(7.81598e-14 0 0)
(1.63425e-13 0 0)
(2.84218e-14 0 0)
(-2.13163e-13 0 0)
(-3.33955e-13 0 0)
(-2.62901e-13 0 0)
(-1.5632e-13 0 0)
(-2.98428e-13 0 0)
(-2.70006e-13 0 0)
(-4.40536e-13 0 0)
(-6.32383e-13 0 0)
(-3.4106e-13 0 0)
(-1.42109e-13 0 0)
(1.4211e-14 0 0)
(-8.52651e-14 0 0)
(-2.91323e-13 0 0)
(-1.06581e-13 0 0)
(-1.84741e-13 0 0)
(-2.62901e-13 0 0)
(-6.75016e-13 0 0)
(-7.60281e-13 0 0)
(-6.32383e-13 0 0)
(-4.54747e-13 0 0)
(-2.55795e-13 0 0)
(-3.69482e-13 0 0)
(-2.70006e-13 0 0)
(-1.27898e-13 0 0)
(2.84218e-14 0 0)
(-2.70006e-13 0 0)
(-2.4869e-13 0 0)
(-1.20792e-13 0 0)
(-2.77112e-13 0 0)
(2.55795e-13 0 0)
(2.77112e-13 0 0)
(3.48166e-13 0 0)
(2.4869e-13 0 0)
(5.68436e-14 0 0)
(9.94759e-14 0 0)
(1.77636e-13 0 0)
(2.98428e-13 0 0)
(1.06582e-13 0 0)
(3.05533e-13 0 0)
(3.90798e-13 0 0)
(1.84741e-13 0 0)
(-1.20792e-13 0 0)
(-1.13687e-13 0 0)
(-2.4869e-13 0 0)
(-2.84217e-13 0 0)
(-2.70006e-13 0 0)
(-6.39489e-14 0 0)
(1.06581e-13 0 0)
(9.94761e-14 0 0)
(1.63425e-13 0 0)
(-5.68433e-14 0 0)
(-2.13163e-13 0 0)
(-2.91322e-13 0 0)
(-5.04485e-13 0 0)
(-4.68958e-13 0 0)
(-5.40012e-13 0 0)
(-2.77112e-13 0 0)
(-3.4106e-13 0 0)
(-4.9738e-13 0 0)
(-3.48166e-13 0 0)
(-4.1922e-13 0 0)
(-4.26326e-14 0 0)
(1.98952e-13 0 0)
(1.35003e-13 0 0)
(1.13687e-13 0 0)
(2.27374e-13 0 0)
(-4.26324e-14 0 0)
(-2.13165e-14 0 0)
(3.55272e-14 0 0)
(1.42109e-14 0 0)
(7.10554e-15 0 0)
(3.90798e-13 0 0)
(2.13163e-13 0 0)
(2.13163e-13 0 0)
(2.84217e-13 0 0)
(1.35003e-13 0 0)
(-7.10552e-15 0 0)
(-1.84741e-13 0 0)
(6.39486e-14 0 0)
(-2.06057e-13 0 0)
(-4.40537e-13 0 0)
(-3.69482e-13 0 0)
(-4.61853e-13 0 0)
(-5.82645e-13 0 0)
(-4.61853e-13 0 0)
(-6.75016e-13 0 0)
(-5.25802e-13 0 0)
(-2.77112e-13 0 0)
(-7.10543e-14 0 0)
(-2.13163e-14 0 0)
(-1.35003e-13 0 0)
(4.97379e-14 0 0)
(2.84218e-14 0 0)
(-1.13687e-13 0 0)
(-1.13687e-13 0 0)
(7.10538e-15 0 0)
(-2.62901e-13 0 0)
(-3.83693e-13 0 0)
(-2.06057e-13 0 0)
(-1.27898e-13 0 0)
(7.10533e-15 0 0)
(-2.13163e-14 0 0)
(-2.41584e-13 0 0)
(-9.9476e-14 0 0)
(2.70006e-13 0 0)
(3.33955e-13 0 0)
(4.83169e-13 0 0)
(6.11067e-13 0 0)
(4.9738e-13 0 0)
(1.84741e-13 0 0)
(1.42109e-13 0 0)
(-2.55795e-13 0 0)
(-4.9738e-13 0 0)
(-5.96856e-13 0 0)
(-6.89226e-13 0 0)
(-6.39489e-13 0 0)
(-6.89227e-13 0 0)
(-7.74492e-13 0 0)
(-5.68434e-13 0 0)
(-6.75016e-13 0 0)
(-8.10019e-13 0 0)
(-7.38965e-13 0 0)
(-7.60281e-13 0 0)
(-6.82121e-13 0 0)
(-4.54747e-13 0 0)
(-2.13163e-13 0 0)
(-3.05533e-13 0 0)
(-2.13163e-13 0 0)
(-1.63425e-13 0 0)
(-8.52652e-14 0 0)
(-2.34479e-13 0 0)
(-2.62901e-13 0 0)
(-3.12639e-13 0 0)
(-2.70006e-13 0 0)
(-1.19997e-19 0 0)
(-1.7053e-13 0 0)
(-1.91847e-13 0 0)
(-7.10543e-15 0 0)
(-4.13762e-20 0 0)
(2.55795e-13 0 0)
(4.05009e-13 0 0)
(2.06057e-13 0 0)
(5.68434e-14 0 0)
(1.35003e-13 0 0)
(3.12639e-13 0 0)
(1.56319e-13 0 0)
(3.55271e-13 0 0)
(3.48166e-13 0 0)
(-5.68434e-14 0 0)
(-2.20268e-13 0 0)
(-1.13687e-13 0 0)
(1.7053e-13 0 0)
(3.48166e-13 0 0)
(4.1922e-13 0 0)
(3.69482e-13 0 0)
(3.48166e-13 0 0)
(3.55272e-14 0 0)
(5.68434e-14 0 0)
(3.62377e-13 0 0)
(3.33955e-13 0 0)
(3.48166e-13 0 0)
(1.84741e-13 0 0)
(-3.5527e-14 0 0)
(-4.9738e-14 0 0)
(-2.06057e-13 0 0)
(-2.4869e-13 0 0)
(-4.1922e-13 0 0)
(-2.34479e-13 0 0)
(-1.42109e-14 0 0)
(2.13163e-14 0 0)
(-7.81597e-14 0 0)
(1.7053e-13 0 0)
(9.23706e-14 0 0)
(8.52651e-14 0 0)
(9.23705e-14 0 0)
(-9.94759e-14 0 0)
(-4.26327e-14 0 0)
(-2.13163e-13 0 0)
(2.13161e-14 0 0)
(2.13164e-14 0 0)
(7.81596e-14 0 0)
(-2.84216e-14 0 0)
(5.68433e-14 0 0)
(4.9738e-13 0 0)
(8.10019e-13 0 0)
(5.32907e-13 0 0)
(5.40013e-13 0 0)
(4.33431e-13 0 0)
(5.68436e-14 0 0)
(1.84741e-13 0 0)
(2.27374e-13 0 0)
(-1.49214e-13 0 0)
(-2.84217e-13 0 0)
(7.10546e-15 0 0)
(1.20792e-13 0 0)
(7.1054e-15 0 0)
(-1.27898e-13 0 0)
(-2.84218e-14 0 0)
(3.29981e-20 0 0)
(1.13687e-13 0 0)
(-7.81597e-14 0 0)
(-1.20792e-13 0 0)
(2.13162e-14 0 0)
(3.69482e-13 0 0)
(4.76064e-13 0 0)
(3.62377e-13 0 0)
(6.60805e-13 0 0)
(5.04485e-13 0 0)
(4.12115e-13 0 0)
(3.33955e-13 0 0)
(2.4869e-13 0 0)
(1.06581e-13 0 0)
(-9.23705e-14 0 0)
(-1.56319e-13 0 0)
(-3.55272e-14 0 0)
(-2.41585e-13 0 0)
(-3.97904e-13 0 0)
(-3.97904e-13 0 0)
(-2.55795e-13 0 0)
(-1.84741e-13 0 0)
(-9.9476e-14 0 0)
(-1.42109e-13 0 0)
(-9.23706e-14 0 0)
(6.39489e-14 0 0)
(-9.23706e-14 0 0)
(-2.70006e-13 0 0)
(-6.6791e-13 0 0)
(-7.81597e-13 0 0)
(-5.40013e-13 0 0)
(-4.33431e-13 0 0)
(-4.68958e-13 0 0)
(-4.33431e-13 0 0)
(-3.76588e-13 0 0)
(-9.23706e-14 0 0)
(1.20792e-13 0 0)
(-7.10543e-15 0 0)
(1.42108e-14 0 0)
(6.39489e-14 0 0)
(-2.77112e-13 0 0)
(-2.27374e-13 0 0)
(-5.18696e-13 0 0)
(-5.68434e-13 0 0)
(-5.04485e-13 0 0)
(-2.91323e-13 0 0)
(-2.27374e-13 0 0)
(-2.98428e-13 0 0)
(-3.55271e-13 0 0)
(-1.56319e-13 0 0)
(4.26325e-14 0 0)
(-5.68434e-14 0 0)
(2.13163e-14 0 0)
(-6.39489e-14 0 0)
(-1.42109e-14 0 0)
(-7.81596e-14 0 0)
(-1.84741e-13 0 0)
(-2.70006e-13 0 0)
(5.68435e-14 0 0)
(3.76588e-13 0 0)
(4.9738e-13 0 0)
(4.68958e-13 0 0)
(4.61853e-13 0 0)
(3.69482e-13 0 0)
(1.84741e-13 0 0)
(3.33955e-13 0 0)
(2.70006e-13 0 0)
(5.96856e-13 0 0)
(2.4869e-13 0 0)
(8.52653e-14 0 0)
(9.9476e-14 0 0)
(1.98952e-13 0 0)
(2.98428e-13 0 0)
(1.91847e-13 0 0)
(2.41585e-13 0 0)
(1.27898e-13 0 0)
(1.91847e-13 0 0)
(2.4869e-13 0 0)
(-1.42108e-14 0 0)
(-1.42109e-14 0 0)
(1.13687e-13 0 0)
(2.70006e-13 0 0)
(1.35003e-13 0 0)
(-9.94759e-14 0 0)
(3.5527e-14 0 0)
(1.84741e-13 0 0)
(5.40012e-13 0 0)
(5.47118e-13 0 0)
(8.88178e-13 0 0)
(1.08003e-12 0 0)
(1.06581e-12 0 0)
(5.18696e-13 0 0)
(3.90798e-13 0 0)
(2.55795e-13 0 0)
(2.4869e-13 0 0)
(2.34479e-13 0 0)
(1.35003e-13 0 0)
(1.35003e-13 0 0)
(1.49214e-13 0 0)
(4.26326e-14 0 0)
(2.34479e-13 0 0)
(2.20268e-13 0 0)
(-2.84217e-14 0 0)
(3.4106e-13 0 0)
(4.83169e-13 0 0)
(6.18172e-13 0 0)
(7.67386e-13 0 0)
(7.10543e-13 0 0)
(2.77112e-13 0 0)
(2.34479e-13 0 0)
(9.94761e-14 0 0)
(-7.10543e-14 0 0)
(-3.48166e-13 0 0)
(-3.90798e-13 0 0)
(-5.11591e-13 0 0)
(-3.19744e-13 0 0)
(-1.35003e-13 0 0)
(-1.35003e-13 0 0)
(-1.91847e-13 0 0)
(7.81597e-14 0 0)
(1.56319e-13 0 0)
(-2.13163e-14 0 0)
(1.77636e-13 0 0)
(4.33431e-13 0 0)
(1.7053e-13 0 0)
(3.55271e-14 0 0)
(-2.13162e-14 0 0)
(1.91847e-13 0 0)
(1.77636e-13 0 0)
(-3.55272e-14 0 0)
(3.55272e-14 0 0)
(-4.26326e-14 0 0)
(7.0989e-20 0 0)
(-1.42109e-14 0 0)
(7.10543e-15 0 0)
(7.10553e-15 0 0)
(-1.25993e-19 0 0)
(-1.42108e-13 0 0)
(-7.81599e-14 0 0)
(-2.27373e-13 0 0)
(3.55269e-14 0 0)
(3.12639e-13 0 0)
(5.96856e-13 0 0)
(4.40537e-13 0 0)
(8.52651e-14 0 0)
(2.13163e-14 0 0)
(2.62901e-13 0 0)
(4.1922e-13 0 0)
(2.13163e-13 0 0)
(1.20792e-13 0 0)
(3.5527e-14 0 0)
(7.81597e-14 0 0)
(1.35003e-13 0 0)
(-2.55795e-13 0 0)
(-1.98952e-13 0 0)
(-2.13163e-14 0 0)
(-8.52649e-14 0 0)
(-3.41061e-13 0 0)
(-6.39488e-13 0 0)
(-6.82121e-13 0 0)
(-8.81073e-13 0 0)
(-8.88179e-13 0 0)
(-8.2423e-13 0 0)
(-6.46594e-13 0 0)
(-6.18172e-13 0 0)
(-4.90275e-13 0 0)
(-4.05009e-13 0 0)
(-3.83693e-13 0 0)
(-1.06582e-13 0 0)
(-8.5265e-14 0 0)
(-9.94761e-14 0 0)
(-2.91323e-13 0 0)
(-3.48166e-13 0 0)
(-1.20792e-13 0 0)
(-7.10536e-15 0 0)
(1.42108e-14 0 0)
(3.55271e-14 0 0)
(-1.20792e-13 0 0)
(-3.62377e-13 0 0)
(-2.62901e-13 0 0)
(-2.98428e-13 0 0)
(-5.47118e-13 0 0)
(-4.9738e-13 0 0)
(-3.33955e-13 0 0)
(-1.35003e-13 0 0)
(9.94761e-14 0 0)
(3.33955e-13 0 0)
(2.20268e-13 0 0)
(1.13687e-13 0 0)
(1.56319e-13 0 0)
(1.35003e-13 0 0)
(2.13163e-13 0 0)
(2.84217e-13 0 0)
(2.77112e-13 0 0)
(2.13163e-14 0 0)
(-9.23705e-14 0 0)
(1.27898e-13 0 0)
(-2.13162e-14 0 0)
(9.94759e-14 0 0)
(4.26326e-14 0 0)
(-7.10546e-15 0 0)
(-1.35003e-13 0 0)
(-2.98428e-13 0 0)
(-5.32907e-13 0 0)
(-7.31859e-13 0 0)
(-4.1922e-13 0 0)
(-3.2685e-13 0 0)
(-1.5632e-13 0 0)
(2.13163e-14 0 0)
(1.77636e-13 0 0)
(4.12115e-13 0 0)
(6.39488e-13 0 0)
(4.26326e-13 0 0)
(3.97904e-13 0 0)
(2.27374e-13 0 0)
(3.33955e-13 0 0)
(4.68958e-13 0 0)
(4.1922e-13 0 0)
(3.76588e-13 0 0)
(2.62901e-13 0 0)
(4.40537e-13 0 0)
(5.68434e-13 0 0)
(7.24754e-13 0 0)
(7.95808e-13 0 0)
(8.45546e-13 0 0)
(8.31335e-13 0 0)
(7.4607e-13 0 0)
(5.61329e-13 0 0)
(5.7554e-13 0 0)
(5.32907e-13 0 0)
(4.97379e-14 0 0)
(-2.13162e-14 0 0)
(-1.98952e-13 0 0)
(-3.2685e-13 0 0)
(-1.35003e-13 0 0)
(-7.10544e-14 0 0)
(-1.06581e-13 0 0)
(6.39488e-14 0 0)
(-7.10536e-15 0 0)
(-8.52651e-14 0 0)
(-1.27898e-13 0 0)
(-2.20268e-13 0 0)
(-2.13163e-13 0 0)
(-1.13687e-13 0 0)
(-3.83693e-13 0 0)
(-5.32907e-13 0 0)
(-5.7554e-13 0 0)
(-4.90275e-13 0 0)
(-7.24754e-13 0 0)
(-8.24229e-13 0 0)
(-7.10543e-13 0 0)
(-8.73967e-13 0 0)
(-4.47642e-13 0 0)
(-6.39488e-13 0 0)
(-6.6791e-13 0 0)
(-5.25802e-13 0 0)
(-3.76588e-13 0 0)
(-3.2685e-13 0 0)
(-2.70006e-13 0 0)
(-1.20792e-13 0 0)
(-2.84218e-14 0 0)
(-4.9738e-14 0 0)
(-4.9738e-14 0 0)
(-9.23705e-14 0 0)
(4.97379e-14 0 0)
(7.10544e-14 0 0)
(3.55269e-14 0 0)
(-4.97379e-14 0 0)
(-3.33955e-13 0 0)
(-4.90274e-13 0 0)
(-4.12115e-13 0 0)
(-2.70006e-13 0 0)
(-2.20268e-13 0 0)
(-1.49214e-13 0 0)
(-9.23705e-14 0 0)
(-1.48925e-19 0 0)
(-2.84217e-13 0 0)
(-3.33955e-13 0 0)
(-1.7053e-13 0 0)
(-1.91847e-13 0 0)
(-5.68434e-14 0 0)
(-1.91846e-13 0 0)
(-2.4869e-13 0 0)
(-2.91322e-13 0 0)
(-1.20792e-13 0 0)
(-3.05533e-13 0 0)
(-2.55795e-13 0 0)
(1.91847e-13 0 0)
(2.06057e-13 0 0)
(9.9476e-14 0 0)
(-9.23704e-14 0 0)
(-5.25802e-13 0 0)
(-5.8975e-13 0 0)
(-3.55271e-13 0 0)
(-1.13687e-13 0 0)
(1.98952e-13 0 0)
(2.4869e-13 0 0)
(4.40536e-13 0 0)
(-7.81597e-14 0 0)
(-2.4869e-13 0 0)
(-2.62901e-13 0 0)
(-3.55272e-13 0 0)
(-1.98952e-13 0 0)
(-3.62377e-13 0 0)
(-4.33431e-13 0 0)
(-3.97904e-13 0 0)
(-4.47642e-13 0 0)
(-3.48166e-13 0 0)
(-1.77636e-13 0 0)
(-4.26326e-13 0 0)
(-4.47642e-13 0 0)
(-5.82645e-13 0 0)
(-6.53699e-13 0 0)
(-5.40012e-13 0 0)
(-3.97904e-13 0 0)
(-2.55795e-13 0 0)
(-1.42109e-13 0 0)
(-9.94759e-14 0 0)
(-3.76588e-13 0 0)
(-4.90275e-13 0 0)
(-4.9738e-13 0 0)
(-4.9738e-13 0 0)
(-7.03437e-13 0 0)
(-7.17648e-13 0 0)
(-5.96856e-13 0 0)
(-6.96332e-13 0 0)
(-8.17124e-13 0 0)
(-7.17648e-13 0 0)
(-5.7554e-13 0 0)
(-9.166e-13 0 0)
(-1.1795e-12 0 0)
(-1.18661e-12 0 0)
(-1.30029e-12 0 0)
(-1.48503e-12 0 0)
(-1.81899e-12 0 0)
(-1.84741e-12 0 0)
(-1.91136e-12 0 0)
(-2.13873e-12 0 0)
(-2.12452e-12 0 0)
(-2.13163e-12 0 0)
(-2.01084e-12 0 0)
(-1.66267e-12 0 0)
(-1.24345e-12 0 0)
(-8.95284e-13 0 0)
(-4.26326e-13 0 0)
(4.47642e-13 0 0)
(1.90425e-12 0 0)
(5.27223e-12 0 0)
(1.32374e-11 0 0)
(3.26708e-11 0 0)
(7.82663e-11 0 0)
(1.85402e-10 0 0)
(4.33708e-10 0 0)
(1.00181e-09 0 0)
(2.28901e-09 0 0)
(5.1717e-09 0 0)
(1.15514e-08 0 0)
(2.55054e-08 0 0)
(5.56562e-08 0 0)
(1.20001e-07 0 0)
(2.5559e-07 0 0)
(5.37626e-07 0 0)
(1.11656e-06 0 0)
(2.28897e-06 0 0)
(4.6305e-06 0 0)
(9.24112e-06 0 0)
(1.81887e-05 0 0)
(3.5296e-05 0 0)
(6.75087e-05 0 0)
(0.000127222 0 0)
(0.000236149 0 0)
(0.0004316 0 0)
(0.000776411 0 0)
(0.00137422 0 0)
(0.00239226 0 0)
(0.00409434 0 0)
(0.00688668 0 0)
(0.0113793 0 0)
(0.018464 0 0)
(0.0294087 0 0)
(0.045962 0 0)
(0.0704597 0 0)
(0.105916 0 0)
(0.156076 0 0)
(0.225408 0 0)
(0.319002 0 0)
(0.442365 0 0)
(0.601099 0 0)
(0.800485 0 0)
(1.04502 0 0)
(1.33792 0 0)
(1.68081 0 0)
(2.07339 0 0)
(2.5135 0 0)
(2.99728 0 0)
(3.51955 0 0)
(4.07439 0 0)
(4.65565 0 0)
(5.25753 0 0)
(5.87492 0 0)
(6.50366 0 0)
(7.14055 0 0)
(7.78329 0 0)
(8.43031 0 0)
(9.08057 0 0)
(9.73341 0 0)
(10.3884 0 0)
(11.0454 0 0)
(11.7041 0 0)
(12.3644 0 0)
(13.0264 0 0)
(13.6899 0 0)
(14.355 0 0)
(15.0217 0 0)
(15.69 0 0)
(16.3599 0 0)
(17.0316 0 0)
(17.705 0 0)
(18.3803 0 0)
(19.0575 0 0)
(19.7367 0 0)
(20.4181 0 0)
(21.1017 0 0)
(21.7877 0 0)
(22.4761 0 0)
(23.1671 0 0)
(23.8609 0 0)
(24.5574 0 0)
(25.2569 0 0)
(25.9594 0 0)
(26.665 0 0)
(27.374 0 0)
(28.0862 0 0)
(28.802 0 0)
(29.521 0 0)
(30.2444 0 0)
(30.9688 0 0)
(31.703 0 0)
(32.4264 0 0)
(33.1857 0 0)
(33.8837 0 0)
(34.7079 0 0)
(35.3278 0 0)
(36.2699 0 0)
(36.7817 0 0)
(37.8073 0 0)
(38.2994 0 0)
(39.2832 0 0)
(39.7555 0 0)
(41.2196 0 0)
)
;

boundaryField
{
    sideLeft
    {
        type            symmetryPlane;
    }
    sideRight
    {
        type            zeroGradient;
    }
    topbottom
    {
        type            empty;
    }
    frontback
    {
        type            empty;
    }
}


// ************************************************************************* //
