/*--------------------------------*- C++ -*----------------------------------*\
| =========                 |                                                 |
| \\      /  F ield         | OpenFOAM: The Open Source CFD Toolbox           |
|  \\    /   O peration     | Version:  2.4.0                                 |
|   \\  /    A nd           | Web:      www.OpenFOAM.org                      |
|    \\/     M anipulation  |                                                 |
\*---------------------------------------------------------------------------*/
FoamFile
{
    version     2.0;
    format      ascii;
    class       volVectorField;
    location    "0.02";
    object      Ur;
}
// * * * * * * * * * * * * * * * * * * * * * * * * * * * * * * * * * * * * * //

dimensions      [0 1 -1 0 0 0 0];

internalField   nonuniform List<vector> 
1000
(
(-7.10543e-15 0 0)
(-4.9738e-14 0 0)
(1.28793e-21 0 0)
(3.55271e-14 0 0)
(7.10543e-15 0 0)
(-1.47708e-22 0 0)
(-7.10543e-15 0 0)
(-1.08057e-21 0 0)
(1.42109e-14 0 0)
(2.79708e-22 0 0)
(4.26326e-14 0 0)
(3.55271e-14 0 0)
(-2.13163e-14 0 0)
(-4.26326e-14 0 0)
(-2.84217e-14 0 0)
(-1.42109e-14 0 0)
(-5.68434e-14 0 0)
(2.13163e-14 0 0)
(5.68434e-14 0 0)
(-2.13163e-14 0 0)
(3.55271e-14 0 0)
(4.9738e-14 0 0)
(-4.9738e-14 0 0)
(7.10543e-15 0 0)
(-2.13163e-14 0 0)
(3.55271e-14 0 0)
(6.39488e-14 0 0)
(8.90255e-22 0 0)
(-1.42109e-14 0 0)
(-7.10543e-14 0 0)
(-3.55271e-14 0 0)
(-7.10543e-15 0 0)
(7.10543e-15 0 0)
(-2.13163e-14 0 0)
(-7.10543e-15 0 0)
(7.10543e-15 0 0)
(-2.13163e-14 0 0)
(2.13163e-14 0 0)
(-2.84217e-14 0 0)
(-6.39488e-14 0 0)
(2.84217e-14 0 0)
(1.42109e-14 0 0)
(-2.13163e-14 0 0)
(4.9738e-14 0 0)
(4.9738e-14 0 0)
(2.13163e-14 0 0)
(7.10543e-15 0 0)
(-8.52651e-14 0 0)
(-4.26326e-14 0 0)
(2.84217e-14 0 0)
(7.10543e-15 0 0)
(-7.81817e-22 0 0)
(2.84217e-14 0 0)
(1.29996e-21 0 0)
(-4.26326e-14 0 0)
(2.13163e-14 0 0)
(2.13163e-14 0 0)
(-2.84217e-14 0 0)
(-4.26326e-14 0 0)
(1.42109e-14 0 0)
(5.68434e-14 0 0)
(-1.64717e-21 0 0)
(4.40114e-22 0 0)
(7.10543e-15 0 0)
(-1.42109e-14 0 0)
(7.10542e-15 0 0)
(1.42109e-14 0 0)
(-2.13163e-14 0 0)
(-5.68434e-14 0 0)
(-1.63246e-22 0 0)
(7.10543e-15 0 0)
(-1.42109e-14 0 0)
(-7.10543e-15 0 0)
(-7.10543e-15 0 0)
(2.84217e-14 0 0)
(-4.9738e-14 0 0)
(-6.39488e-14 0 0)
(1.42109e-14 0 0)
(7.10543e-14 0 0)
(4.9738e-14 0 0)
(7.10543e-15 0 0)
(-2.13163e-14 0 0)
(-1.42695e-22 0 0)
(2.84217e-14 0 0)
(-7.10543e-15 0 0)
(-1.42109e-14 0 0)
(-1.42109e-14 0 0)
(-2.13163e-14 0 0)
(7.10543e-15 0 0)
(7.10543e-15 0 0)
(-7.10543e-15 0 0)
(7.10543e-15 0 0)
(-1.42109e-14 0 0)
(2.13163e-14 0 0)
(1.42109e-14 0 0)
(-1.42109e-14 0 0)
(-4.26326e-14 0 0)
(-7.10543e-15 0 0)
(4.9738e-14 0 0)
(3.55271e-14 0 0)
(2.84217e-14 0 0)
(7.10543e-15 0 0)
(-2.13163e-14 0 0)
(-1.42109e-14 0 0)
(-7.10543e-15 0 0)
(-7.10543e-15 0 0)
(4.26326e-14 0 0)
(2.13163e-14 0 0)
(-1.42109e-14 0 0)
(-1.42109e-14 0 0)
(1.20622e-21 0 0)
(-7.10543e-15 0 0)
(-1.42109e-14 0 0)
(1.42109e-14 0 0)
(2.84217e-14 0 0)
(-2.84217e-14 0 0)
(-7.10543e-15 0 0)
(2.84217e-14 0 0)
(-3.55271e-14 0 0)
(-7.81597e-14 0 0)
(-4.26326e-14 0 0)
(7.10543e-14 0 0)
(2.13163e-14 0 0)
(1.42109e-14 0 0)
(-1.43362e-22 0 0)
(-4.26326e-14 0 0)
(8.83906e-22 0 0)
(7.10543e-15 0 0)
(2.13163e-14 0 0)
(4.08868e-22 0 0)
(1.42109e-14 0 0)
(7.10543e-15 0 0)
(-7.10543e-15 0 0)
(7.10543e-15 0 0)
(-4.26326e-14 0 0)
(-1.42109e-14 0 0)
(4.26326e-14 0 0)
(4.26326e-14 0 0)
(7.10543e-15 0 0)
(-4.9738e-14 0 0)
(-2.84217e-14 0 0)
(3.55271e-14 0 0)
(4.26326e-14 0 0)
(-7.10543e-15 0 0)
(-1.06581e-13 0 0)
(2.84217e-14 0 0)
(1.13687e-13 0 0)
(-2.84217e-14 0 0)
(-7.10543e-15 0 0)
(3.55271e-14 0 0)
(3.55271e-14 0 0)
(1.42109e-14 0 0)
(-2.84217e-14 0 0)
(2.84217e-14 0 0)
(-7.10543e-15 0 0)
(-6.39488e-14 0 0)
(-6.39488e-14 0 0)
(2.84217e-14 0 0)
(9.9476e-14 0 0)
(-7.10543e-15 0 0)
(-4.26326e-14 0 0)
(-2.84217e-14 0 0)
(2.84217e-14 0 0)
(1.42109e-14 0 0)
(-5.68434e-14 0 0)
(1.42109e-14 0 0)
(-2.84217e-14 0 0)
(-2.13163e-14 0 0)
(5.68434e-14 0 0)
(-2.13163e-14 0 0)
(-4.26326e-14 0 0)
(1.42109e-14 0 0)
(2.13163e-14 0 0)
(-9.77644e-22 0 0)
(7.10543e-15 0 0)
(-2.84217e-14 0 0)
(-7.10543e-15 0 0)
(1.22043e-21 0 0)
(-7.10543e-15 0 0)
(3.55271e-14 0 0)
(6.39488e-14 0 0)
(2.84217e-14 0 0)
(1.46538e-21 0 0)
(-2.84217e-14 0 0)
(-4.26326e-14 0 0)
(4.26326e-14 0 0)
(4.9738e-14 0 0)
(-2.84217e-14 0 0)
(-7.10543e-14 0 0)
(2.13163e-14 0 0)
(5.68434e-14 0 0)
(-7.10543e-15 0 0)
(3.85476e-22 0 0)
(1.42109e-14 0 0)
(1.42109e-14 0 0)
(-2.13163e-14 0 0)
(-7.10543e-15 0 0)
(1.42109e-14 0 0)
(1.42109e-14 0 0)
(-3.97676e-22 0 0)
(-7.10543e-15 0 0)
(3.55271e-14 0 0)
(3.55271e-14 0 0)
(-2.13163e-14 0 0)
(-4.26326e-14 0 0)
(4.9738e-14 0 0)
(2.84217e-14 0 0)
(-1.42109e-14 0 0)
(2.13163e-14 0 0)
(-5.68434e-14 0 0)
(1.42109e-14 0 0)
(4.9738e-14 0 0)
(7.10543e-15 0 0)
(-4.9738e-14 0 0)
(-5.68434e-14 0 0)
(7.81597e-14 0 0)
(5.68434e-14 0 0)
(-2.13163e-14 0 0)
(-2.84217e-14 0 0)
(-7.10543e-15 0 0)
(7.10543e-15 0 0)
(-4.9738e-14 0 0)
(-2.13163e-14 0 0)
(4.9738e-14 0 0)
(-2.13163e-14 0 0)
(-1.42109e-14 0 0)
(3.55271e-14 0 0)
(2.84217e-14 0 0)
(-2.84217e-14 0 0)
(-6.39488e-14 0 0)
(-1.42109e-14 0 0)
(4.26326e-14 0 0)
(9.23706e-14 0 0)
(-7.10543e-15 0 0)
(-7.10542e-15 0 0)
(7.10543e-15 0 0)
(-2.13163e-14 0 0)
(-1.46471e-21 0 0)
(-1.42109e-14 0 0)
(-7.10543e-15 0 0)
(-4.26326e-14 0 0)
(-7.10543e-15 0 0)
(7.10543e-15 0 0)
(7.10543e-15 0 0)
(7.10543e-14 0 0)
(2.13163e-14 0 0)
(-9.23706e-14 0 0)
(-4.26326e-14 0 0)
(2.13163e-14 0 0)
(2.84217e-14 0 0)
(2.84217e-14 0 0)
(1.42109e-14 0 0)
(9.08974e-23 0 0)
(1.42109e-14 0 0)
(-2.13163e-14 0 0)
(-1.42109e-14 0 0)
(2.84217e-14 0 0)
(-2.84217e-14 0 0)
(-2.13163e-14 0 0)
(2.84217e-14 0 0)
(-2.13163e-14 0 0)
(-4.9738e-14 0 0)
(3.55271e-14 0 0)
(-7.10543e-15 0 0)
(-3.55271e-14 0 0)
(1.42109e-14 0 0)
(1.42109e-14 0 0)
(-7.10543e-15 0 0)
(-2.84217e-14 0 0)
(5.68434e-14 0 0)
(3.55271e-14 0 0)
(-3.55271e-14 0 0)
(-2.13163e-14 0 0)
(-3.55271e-14 0 0)
(1.42109e-14 0 0)
(4.26326e-14 0 0)
(7.10543e-15 0 0)
(-3.29e-21 0 0)
(2.13163e-14 0 0)
(-4.26326e-14 0 0)
(-2.84217e-14 0 0)
(4.9738e-14 0 0)
(3.55271e-14 0 0)
(2.84217e-14 0 0)
(-2.84217e-14 0 0)
(-4.26326e-14 0 0)
(4.26326e-14 0 0)
(7.10543e-15 0 0)
(-6.39488e-14 0 0)
(2.84217e-14 0 0)
(2.84217e-14 0 0)
(-5.68434e-14 0 0)
(-2.14376e-22 0 0)
(-4.9738e-14 0 0)
(1.42109e-14 0 0)
(9.9476e-14 0 0)
(-2.13163e-14 0 0)
(-2.13163e-14 0 0)
(2.84217e-14 0 0)
(-3.55271e-14 0 0)
(-7.10543e-15 0 0)
(7.10543e-14 0 0)
(-6.39488e-14 0 0)
(-3.55271e-14 0 0)
(4.26326e-14 0 0)
(8.46979e-22 0 0)
(4.9738e-14 0 0)
(2.13163e-14 0 0)
(-1.42109e-14 0 0)
(7.10543e-15 0 0)
(2.48847e-21 0 0)
(-5.68434e-14 0 0)
(-2.13163e-14 0 0)
(7.81597e-14 0 0)
(-7.10543e-15 0 0)
(-2.13163e-14 0 0)
(1.73941e-22 0 0)
(-1.42109e-14 0 0)
(2.84217e-14 0 0)
(3.55271e-14 0 0)
(-7.54747e-22 0 0)
(2.13163e-14 0 0)
(3.76287e-22 0 0)
(-3.55271e-14 0 0)
(2.84217e-14 0 0)
(-2.13163e-14 0 0)
(-2.84217e-14 0 0)
(2.84217e-14 0 0)
(-6.39488e-14 0 0)
(-7.81597e-14 0 0)
(-7.10543e-15 0 0)
(1.42109e-14 0 0)
(4.9738e-14 0 0)
(7.10543e-15 0 0)
(7.10543e-15 0 0)
(4.26326e-14 0 0)
(2.84217e-14 0 0)
(-2.84217e-14 0 0)
(-5.68434e-14 0 0)
(4.26326e-14 0 0)
(7.10543e-15 0 0)
(-3.55271e-14 0 0)
(1.42109e-14 0 0)
(8.52651e-14 0 0)
(1.42109e-14 0 0)
(-7.10543e-14 0 0)
(-2.13163e-14 0 0)
(2.13163e-14 0 0)
(4.9738e-14 0 0)
(-2.84217e-14 0 0)
(-3.55271e-14 0 0)
(-8.19241e-22 0 0)
(-7.10543e-15 0 0)
(2.13163e-14 0 0)
(2.84217e-14 0 0)
(-1.42109e-14 0 0)
(1.42027e-23 0 0)
(-1.02092e-21 0 0)
(-1.42109e-14 0 0)
(2.84217e-14 0 0)
(-2.13163e-14 0 0)
(5.80806e-22 0 0)
(-1.63865e-21 0 0)
(-2.84217e-14 0 0)
(-7.10543e-15 0 0)
(2.13163e-14 0 0)
(6.39488e-14 0 0)
(-1.42109e-14 0 0)
(-4.9738e-14 0 0)
(2.84217e-14 0 0)
(-2.13163e-14 0 0)
(-7.10543e-15 0 0)
(4.26326e-14 0 0)
(-7.10543e-15 0 0)
(-7.10543e-15 0 0)
(-7.10543e-15 0 0)
(-2.84217e-14 0 0)
(-2.13163e-14 0 0)
(2.84217e-14 0 0)
(-2.13163e-14 0 0)
(3.55271e-14 0 0)
(3.55271e-14 0 0)
(1.42109e-14 0 0)
(-7.10543e-15 0 0)
(-5.68434e-14 0 0)
(7.10543e-15 0 0)
(-4.18895e-22 0 0)
(2.13163e-14 0 0)
(1.42109e-14 0 0)
(-2.13163e-14 0 0)
(-1.42109e-14 0 0)
(-3.55271e-14 0 0)
(-3.16084e-21 0 0)
(2.84217e-14 0 0)
(-3.55271e-14 0 0)
(-1.42109e-14 0 0)
(2.13163e-14 0 0)
(-2.84217e-14 0 0)
(1.42109e-14 0 0)
(2.84217e-14 0 0)
(-7.10543e-15 0 0)
(7.10543e-15 0 0)
(2.84217e-14 0 0)
(2.84217e-14 0 0)
(2.13163e-14 0 0)
(4.26326e-14 0 0)
(-4.9738e-14 0 0)
(-7.81597e-14 0 0)
(-1.42109e-14 0 0)
(4.26326e-14 0 0)
(3.55271e-14 0 0)
(-7.10543e-15 0 0)
(-7.10543e-15 0 0)
(-4.9738e-14 0 0)
(1.42109e-14 0 0)
(6.39488e-14 0 0)
(2.84217e-14 0 0)
(-4.26326e-14 0 0)
(7.10543e-15 0 0)
(4.9738e-14 0 0)
(3.32487e-23 0 0)
(6.39488e-14 0 0)
(-5.68434e-14 0 0)
(-7.10543e-14 0 0)
(7.10543e-14 0 0)
(-4.26326e-14 0 0)
(-2.84217e-14 0 0)
(3.55271e-14 0 0)
(-1.42109e-14 0 0)
(6.39488e-14 0 0)
(1.42109e-14 0 0)
(-7.81597e-14 0 0)
(-2.13163e-14 0 0)
(4.96257e-22 0 0)
(1.42109e-14 0 0)
(7.10543e-15 0 0)
(-7.10543e-15 0 0)
(4.26326e-14 0 0)
(-2.13163e-14 0 0)
(-7.81597e-14 0 0)
(-1.42109e-14 0 0)
(-1.42109e-14 0 0)
(4.26326e-14 0 0)
(1.42109e-14 0 0)
(3.55271e-14 0 0)
(6.39488e-14 0 0)
(-1.42109e-14 0 0)
(-2.13163e-14 0 0)
(-1.42109e-14 0 0)
(3.55271e-14 0 0)
(1.42109e-14 0 0)
(-1.42109e-14 0 0)
(-3.55271e-14 0 0)
(-2.13163e-14 0 0)
(6.39488e-14 0 0)
(4.26326e-14 0 0)
(-5.68434e-14 0 0)
(-2.13163e-14 0 0)
(5.68434e-14 0 0)
(7.10543e-15 0 0)
(-2.84217e-14 0 0)
(4.26326e-14 0 0)
(1.42109e-14 0 0)
(-4.26326e-14 0 0)
(-1.42109e-14 0 0)
(-7.10543e-15 0 0)
(-2.13163e-14 0 0)
(2.13163e-14 0 0)
(7.10543e-15 0 0)
(-2.84217e-14 0 0)
(-7.10543e-15 0 0)
(2.13163e-14 0 0)
(-7.10543e-15 0 0)
(-3.55271e-14 0 0)
(3.55271e-14 0 0)
(3.55271e-14 0 0)
(-1.42109e-14 0 0)
(-7.10543e-15 0 0)
(5.68434e-14 0 0)
(-4.473e-22 0 0)
(-1.42109e-14 0 0)
(4.9738e-14 0 0)
(-1.42109e-14 0 0)
(-2.84217e-14 0 0)
(-2.13163e-14 0 0)
(-2.84217e-14 0 0)
(-2.84217e-14 0 0)
(-1.42109e-14 0 0)
(4.26326e-14 0 0)
(5.68434e-14 0 0)
(-1.42109e-14 0 0)
(-3.55271e-14 0 0)
(-2.84217e-14 0 0)
(1.42109e-14 0 0)
(-8.93933e-22 0 0)
(-2.13163e-14 0 0)
(5.68434e-14 0 0)
(7.10543e-15 0 0)
(-4.26326e-14 0 0)
(-2.84217e-14 0 0)
(1.42109e-14 0 0)
(7.10543e-15 0 0)
(-2.84217e-14 0 0)
(2.13163e-14 0 0)
(3.55271e-14 0 0)
(-4.9738e-14 0 0)
(-1.42109e-14 0 0)
(-2.13163e-14 0 0)
(-2.84217e-14 0 0)
(6.39488e-14 0 0)
(4.9738e-14 0 0)
(-1.42109e-14 0 0)
(2.13163e-14 0 0)
(2.13163e-14 0 0)
(-4.9738e-14 0 0)
(-1.42109e-14 0 0)
(4.9738e-14 0 0)
(2.84217e-14 0 0)
(2.39824e-21 0 0)
(-1.42109e-14 0 0)
(-6.39488e-14 0 0)
(-7.10543e-15 0 0)
(3.55271e-14 0 0)
(-1.42109e-14 0 0)
(-2.13163e-14 0 0)
(-1.42109e-14 0 0)
(7.10543e-15 0 0)
(7.81597e-14 0 0)
(2.84217e-14 0 0)
(-7.10543e-15 0 0)
(7.10543e-15 0 0)
(-6.39488e-14 0 0)
(-3.55271e-14 0 0)
(4.9738e-14 0 0)
(2.84217e-14 0 0)
(-7.81597e-14 0 0)
(1.7628e-21 0 0)
(1.42109e-13 0 0)
(-2.13163e-14 0 0)
(-1.13687e-13 0 0)
(1.42109e-14 0 0)
(2.13163e-14 0 0)
(-4.26326e-14 0 0)
(-6.39488e-14 0 0)
(-4.26326e-14 0 0)
(7.10543e-15 0 0)
(-6.11384e-22 0 0)
(4.9738e-14 0 0)
(3.55271e-14 0 0)
(1.82529e-21 0 0)
(7.10543e-14 0 0)
(7.10543e-15 0 0)
(-7.10543e-14 0 0)
(-1.42109e-14 0 0)
(4.26326e-14 0 0)
(1.579e-21 0 0)
(-7.10543e-14 0 0)
(-2.13163e-14 0 0)
(2.13163e-14 0 0)
(-7.10543e-15 0 0)
(7.10543e-15 0 0)
(-2.84217e-14 0 0)
(2.13163e-14 0 0)
(4.26326e-14 0 0)
(1.57399e-21 0 0)
(7.10543e-14 0 0)
(-6.39488e-14 0 0)
(-9.9476e-14 0 0)
(7.10543e-15 0 0)
(1.72435e-22 0 0)
(6.39488e-14 0 0)
(6.39488e-14 0 0)
(-4.26326e-14 0 0)
(-7.10543e-14 0 0)
(-1.42109e-14 0 0)
(2.84217e-14 0 0)
(2.13163e-14 0 0)
(-2.84217e-14 0 0)
(-1.42109e-14 0 0)
(4.9738e-14 0 0)
(2.13163e-14 0 0)
(-4.9738e-14 0 0)
(-7.10543e-15 0 0)
(-8.94601e-22 0 0)
(-7.10543e-15 0 0)
(-4.9738e-14 0 0)
(-3.55271e-14 0 0)
(9.23706e-14 0 0)
(2.13163e-14 0 0)
(-9.9476e-14 0 0)
(4.26326e-14 0 0)
(5.68434e-14 0 0)
(-6.39488e-14 0 0)
(-7.10543e-15 0 0)
(7.10543e-15 0 0)
(5.2249e-22 0 0)
(2.70134e-21 0 0)
(4.9738e-14 0 0)
(1.06581e-13 0 0)
(-7.10543e-15 0 0)
(-5.68434e-14 0 0)
(-2.84217e-14 0 0)
(-3.55271e-14 0 0)
(7.10543e-15 0 0)
(1.42109e-14 0 0)
(-1.97584e-21 0 0)
(-7.10543e-15 0 0)
(-7.10543e-15 0 0)
(1.42109e-14 0 0)
(-1.42109e-14 0 0)
(-1.42109e-14 0 0)
(1.42109e-14 0 0)
(8.36285e-22 0 0)
(2.84217e-14 0 0)
(3.55271e-14 0 0)
(-2.84217e-14 0 0)
(-3.81968e-22 0 0)
(2.13163e-14 0 0)
(7.10543e-15 0 0)
(2.13163e-14 0 0)
(-5.68434e-14 0 0)
(-2.84217e-14 0 0)
(-7.10543e-15 0 0)
(-7.10543e-15 0 0)
(4.26326e-14 0 0)
(-4.26326e-14 0 0)
(-4.9738e-14 0 0)
(3.55271e-14 0 0)
(4.26326e-14 0 0)
(-1.42109e-14 0 0)
(-4.9738e-14 0 0)
(1.42109e-14 0 0)
(2.84217e-14 0 0)
(9.17993e-22 0 0)
(-5.68434e-14 0 0)
(-2.13163e-14 0 0)
(4.26326e-14 0 0)
(-5.42373e-22 0 0)
(-4.26326e-14 0 0)
(-7.10543e-15 0 0)
(4.26326e-14 0 0)
(3.55271e-14 0 0)
(4.9738e-14 0 0)
(-7.10543e-15 0 0)
(-2.84217e-14 0 0)
(-7.02779e-22 0 0)
(-2.13163e-14 0 0)
(-2.13163e-14 0 0)
(-1.42109e-14 0 0)
(6.39488e-14 0 0)
(1.42109e-14 0 0)
(-2.84217e-14 0 0)
(1.42109e-14 0 0)
(-3.55271e-14 0 0)
(-1.42109e-14 0 0)
(4.26326e-14 0 0)
(7.10543e-15 0 0)
(-4.9738e-14 0 0)
(-3.55271e-14 0 0)
(7.81597e-14 0 0)
(5.68434e-14 0 0)
(-4.26326e-14 0 0)
(-7.10543e-15 0 0)
(-4.26326e-14 0 0)
(-7.10543e-15 0 0)
(2.13163e-14 0 0)
(-5.68434e-14 0 0)
(-4.9738e-14 0 0)
(4.9738e-14 0 0)
(7.81597e-14 0 0)
(7.81597e-14 0 0)
(-2.84217e-14 0 0)
(-4.26326e-14 0 0)
(2.84217e-14 0 0)
(2.13163e-14 0 0)
(-2.84217e-14 0 0)
(-5.68434e-14 0 0)
(-2.84217e-14 0 0)
(-7.10542e-15 0 0)
(4.26326e-14 0 0)
(-3.35533e-21 0 0)
(2.13163e-14 0 0)
(2.13163e-14 0 0)
(-2.13163e-14 0 0)
(7.10543e-15 0 0)
(1.42109e-14 0 0)
(-7.10543e-15 0 0)
(7.10543e-15 0 0)
(4.9738e-14 0 0)
(-2.84217e-14 0 0)
(-9.23706e-14 0 0)
(7.10543e-15 0 0)
(3.55271e-14 0 0)
(-1.85303e-22 0 0)
(1.42109e-14 0 0)
(3.55271e-14 0 0)
(-4.26326e-14 0 0)
(-8.52651e-14 0 0)
(1.42109e-14 0 0)
(3.55271e-14 0 0)
(2.84217e-14 0 0)
(2.84217e-14 0 0)
(-4.26326e-14 0 0)
(-7.81597e-14 0 0)
(2.13163e-14 0 0)
(4.9738e-14 0 0)
(-5.68434e-14 0 0)
(-2.13163e-14 0 0)
(4.26326e-14 0 0)
(-7.10542e-15 0 0)
(2.13163e-14 0 0)
(7.10543e-15 0 0)
(-7.10543e-15 0 0)
(-2.55648e-23 0 0)
(-5.68434e-14 0 0)
(-7.10543e-15 0 0)
(1.42109e-14 0 0)
(-1.42109e-14 0 0)
(6.39488e-14 0 0)
(4.26326e-14 0 0)
(-5.68434e-14 0 0)
(-7.10543e-15 0 0)
(4.26326e-14 0 0)
(-4.50808e-22 0 0)
(-1.42109e-14 0 0)
(-2.13163e-14 0 0)
(7.10543e-15 0 0)
(1.42109e-14 0 0)
(1.42109e-14 0 0)
(2.13163e-14 0 0)
(-4.9738e-14 0 0)
(-3.55271e-14 0 0)
(-1.42109e-14 0 0)
(7.10543e-15 0 0)
(5.68434e-14 0 0)
(4.9738e-14 0 0)
(-7.10543e-15 0 0)
(-4.9738e-14 0 0)
(-3.55271e-14 0 0)
(-7.10543e-15 0 0)
(-4.82722e-22 0 0)
(-2.13163e-14 0 0)
(2.13163e-14 0 0)
(-1.42109e-14 0 0)
(1.42109e-14 0 0)
(4.9738e-14 0 0)
(-5.78633e-22 0 0)
(4.30257e-22 0 0)
(2.13163e-14 0 0)
(1.42109e-14 0 0)
(-5.68434e-14 0 0)
(7.10543e-15 0 0)
(2.84217e-14 0 0)
(2.13163e-14 0 0)
(6.39488e-14 0 0)
(2.13163e-14 0 0)
(-6.39488e-14 0 0)
(-7.10543e-14 0 0)
(7.10543e-15 0 0)
(6.39488e-14 0 0)
(-1.42109e-14 0 0)
(7.10543e-15 0 0)
(3.55271e-14 0 0)
(-5.68434e-14 0 0)
(-7.10543e-15 0 0)
(-7.10543e-15 0 0)
(-4.26326e-14 0 0)
(-1.42109e-14 0 0)
(2.13163e-14 0 0)
(1.42109e-14 0 0)
(7.10543e-15 0 0)
(-2.90403e-22 0 0)
(1.42109e-14 0 0)
(6.39488e-14 0 0)
(-7.10543e-15 0 0)
(-4.26326e-14 0 0)
(-3.55271e-14 0 0)
(-3.55271e-14 0 0)
(-2.84217e-14 0 0)
(2.84217e-14 0 0)
(5.68434e-14 0 0)
(-2.84217e-14 0 0)
(-2.84217e-14 0 0)
(4.9738e-14 0 0)
(5.68434e-14 0 0)
(-4.9738e-14 0 0)
(-3.55271e-14 0 0)
(2.84217e-14 0 0)
(-7.61095e-22 0 0)
(-2.13163e-14 0 0)
(-1.42109e-14 0 0)
(9.23706e-14 0 0)
(2.13163e-14 0 0)
(-9.9476e-14 0 0)
(4.9738e-14 0 0)
(7.10543e-15 0 0)
(-9.23706e-14 0 0)
(3.55271e-14 0 0)
(7.10543e-15 0 0)
(-4.26326e-14 0 0)
(7.10543e-15 0 0)
(-7.10543e-15 0 0)
(7.10543e-15 0 0)
(4.9738e-14 0 0)
(7.10543e-15 0 0)
(-2.84217e-14 0 0)
(-7.10543e-15 0 0)
(3.55271e-14 0 0)
(5.68434e-14 0 0)
(-2.84217e-14 0 0)
(-3.55271e-14 0 0)
(2.84217e-14 0 0)
(2.13163e-14 0 0)
(-1.04715e-21 0 0)
(-1.42109e-14 0 0)
(-2.84217e-14 0 0)
(-1.42109e-14 0 0)
(7.10543e-15 0 0)
(-7.10543e-15 0 0)
(-3.55271e-14 0 0)
(4.9738e-14 0 0)
(2.84217e-14 0 0)
(-5.68434e-14 0 0)
(7.10543e-15 0 0)
(7.10543e-15 0 0)
(-1.42109e-14 0 0)
(-7.10543e-15 0 0)
(-4.9738e-14 0 0)
(1.42109e-14 0 0)
(7.10543e-14 0 0)
(-5.68434e-14 0 0)
(-7.10543e-15 0 0)
(7.10543e-14 0 0)
(-1.42109e-14 0 0)
(-1.42109e-14 0 0)
(-2.84217e-14 0 0)
(4.9738e-14 0 0)
(7.81597e-14 0 0)
(-1.42109e-14 0 0)
(-4.9738e-14 0 0)
(-4.9738e-14 0 0)
(5.68434e-14 0 0)
(2.13163e-14 0 0)
(-2.79879e-22 0 0)
(3.55271e-14 0 0)
(5.82141e-22 0 0)
(7.10543e-15 0 0)
(-4.9738e-14 0 0)
(-6.39488e-14 0 0)
(2.13163e-14 0 0)
(6.39488e-14 0 0)
(7.10543e-15 0 0)
(1.42109e-14 0 0)
(-5.67271e-22 0 0)
(-5.68434e-14 0 0)
(2.84217e-14 0 0)
(1.42109e-14 0 0)
(-2.13163e-14 0 0)
(-2.13163e-14 0 0)
(-4.9738e-14 0 0)
(7.10543e-15 0 0)
(6.39488e-14 0 0)
(3.55271e-14 0 0)
(-1.42109e-14 0 0)
(-2.84217e-14 0 0)
(7.10543e-15 0 0)
(7.10543e-14 0 0)
(-5.07619e-22 0 0)
(-6.39488e-14 0 0)
(1.42109e-14 0 0)
(1.42109e-14 0 0)
(-3.55271e-14 0 0)
(-2.13163e-14 0 0)
(-1.42109e-14 0 0)
(-4.26326e-14 0 0)
(1.42109e-14 0 0)
(2.13163e-14 0 0)
(-2.2507e-22 0 0)
(-1.36245e-21 0 0)
(-1.42109e-14 0 0)
(-1.14373e-21 0 0)
(-1.42109e-14 0 0)
(3.55271e-14 0 0)
(-1.42109e-14 0 0)
(-4.26326e-14 0 0)
(2.84217e-14 0 0)
(2.03851e-22 0 0)
(-2.13163e-14 0 0)
(3.55271e-14 0 0)
(7.10543e-15 0 0)
(-3.55271e-14 0 0)
(4.82722e-22 0 0)
(2.13163e-14 0 0)
(7.10543e-15 0 0)
(4.9738e-14 0 0)
(4.26326e-14 0 0)
(-2.13163e-14 0 0)
(6.39489e-14 0 0)
(2.41585e-13 0 0)
(5.18696e-13 0 0)
(1.18661e-12 0 0)
(2.77112e-12 0 0)
(6.19594e-12 0 0)
(1.37561e-11 0 0)
(3.05676e-11 0 0)
(6.67058e-11 0 0)
(1.43636e-10 0 0)
(3.05761e-10 0 0)
(6.42303e-10 0 0)
(1.33193e-09 0 0)
(2.72505e-09 0 0)
(5.49884e-09 0 0)
(1.09408e-08 0 0)
(2.14558e-08 0 0)
(4.14561e-08 0 0)
(7.8888e-08 0 0)
(1.47784e-07 0 0)
(2.72425e-07 0 0)
(4.93929e-07 0 0)
(8.80368e-07 0 0)
(1.54176e-06 0 0)
(2.65139e-06 0 0)
(4.47486e-06 0 0)
(7.40716e-06 0 0)
(1.20169e-05 0 0)
(1.90935e-05 0 0)
(2.96881e-05 0 0)
(4.51356e-05 0 0)
(6.70346e-05 0 0)
(9.71618e-05 0 0)
(0.000137295 0 0)
(0.000188922 0 0)
(0.000252848 0 0)
(0.000328717 0 0)
(0.000414543 0 0)
(0.000506365 0 0)
(0.00059816 0 0)
(0.000682167 0 0)
(0.000749686 0 0)
(0.000792297 0 0)
(0.000803329 0 0)
(0.00077924 0 0)
(0.000720563 0 0)
(0.000632101 0 0)
(0.00052225 0 0)
(0.000401554 0 0)
(0.000280858 0 0)
(0.000169505 0 0)
(7.40368e-05 0 0)
(-2.33465e-06 0 0)
(-5.95055e-05 0 0)
(-9.96798e-05 0 0)
(-0.000126248 0 0)
(-0.000142789 0 0)
(-0.000152437 0 0)
(-0.00015761 0 0)
(-0.000159993 0 0)
(-0.000160671 0 0)
(-0.000160299 0 0)
(-0.00015926 0 0)
(-0.000157779 0 0)
(-0.000155987 0 0)
(-0.000153969 0 0)
(-0.00015178 0 0)
(-0.000149459 0 0)
(-0.000147035 0 0)
(-0.000144533 0 0)
(-0.000141975 0 0)
(-0.000139383 0 0)
(-0.00013678 0 0)
(-0.000134185 0 0)
(-0.000131619 0 0)
(-0.000129101 0 0)
(-0.000126648 0 0)
(-0.000124274 0 0)
(-0.000121991 0 0)
(-0.000119807 0 0)
(-0.000117726 0 0)
(-0.000115745 0 0)
(-0.000113861 0 0)
(-0.000112087 0 0)
(-0.000110462 0 0)
(-0.00010908 0 0)
(-0.000107936 0 0)
(-0.000107066 0 0)
(-0.00010589 0 0)
(-0.000104757 0 0)
(-0.000102448 0 0)
(-0.000101424 0 0)
(-9.94474e-05 0 0)
(-9.90529e-05 0 0)
(-0.000101009 0 0)
(-9.75279e-05 0 0)
(-0.000103985 0 0)
(-0.000121239 0 0)
(-0.0001426 0 0)
(-0.000339311 0 0)
(-0.00119219 0 0)
(-0.00261669 0 0)
(-0.000150345 0 0)
)
;

boundaryField
{
    sideLeft
    {
        type            symmetryPlane;
    }
    sideRight
    {
        type            calculated;
        value           uniform (-0.318183 0 0);
    }
    topbottom
    {
        type            empty;
    }
    frontback
    {
        type            empty;
    }
}


// ************************************************************************* //
