/*--------------------------------*- C++ -*----------------------------------*\
| =========                 |                                                 |
| \\      /  F ield         | OpenFOAM: The Open Source CFD Toolbox           |
|  \\    /   O peration     | Version:  2.4.0                                 |
|   \\  /    A nd           | Web:      www.OpenFOAM.org                      |
|    \\/     M anipulation  |                                                 |
\*---------------------------------------------------------------------------*/
FoamFile
{
    version     2.0;
    format      ascii;
    class       volScalarField;
    location    "0.15";
    object      p;
}
// * * * * * * * * * * * * * * * * * * * * * * * * * * * * * * * * * * * * * //

dimensions      [1 -1 -2 0 0 0 0];

internalField   nonuniform List<scalar> 
1000
(
5e+06
5e+06
5e+06
5e+06
5e+06
5e+06
5e+06
5e+06
5e+06
5e+06
5e+06
5e+06
5e+06
5e+06
5e+06
5e+06
5e+06
5e+06
5e+06
5e+06
5e+06
5e+06
5e+06
5e+06
5e+06
5e+06
5e+06
5e+06
5e+06
5e+06
5e+06
5e+06
5e+06
5e+06
5e+06
5e+06
5e+06
5e+06
5e+06
5e+06
5e+06
5e+06
5e+06
5e+06
5e+06
5e+06
5e+06
5e+06
5e+06
5e+06
5e+06
5e+06
5e+06
5e+06
5e+06
5e+06
5e+06
5e+06
5e+06
5e+06
5e+06
5e+06
5e+06
5e+06
5e+06
5e+06
5e+06
5e+06
5e+06
5e+06
5e+06
5e+06
5e+06
5e+06
5e+06
5e+06
5e+06
5e+06
5e+06
5e+06
5e+06
5e+06
5e+06
5e+06
5e+06
5e+06
5e+06
5e+06
5e+06
5e+06
5e+06
5e+06
5e+06
5e+06
5e+06
5e+06
5e+06
5e+06
5e+06
5e+06
5e+06
5e+06
5e+06
5e+06
5e+06
5e+06
5e+06
5e+06
5e+06
5e+06
5e+06
5e+06
5e+06
5e+06
5e+06
5e+06
5e+06
5e+06
5e+06
5e+06
5e+06
5e+06
5e+06
5e+06
5e+06
5e+06
5e+06
5e+06
5e+06
5e+06
5e+06
5e+06
5e+06
5e+06
5e+06
5e+06
5e+06
5e+06
5e+06
5e+06
5e+06
5e+06
5e+06
5e+06
5e+06
5e+06
5e+06
5e+06
5e+06
5e+06
5e+06
5e+06
5e+06
5e+06
5e+06
5e+06
5e+06
5e+06
5e+06
5e+06
5e+06
5e+06
5e+06
5e+06
5e+06
5e+06
5e+06
5e+06
5e+06
5e+06
5e+06
5e+06
5e+06
5e+06
5e+06
5e+06
5e+06
5e+06
5e+06
5e+06
5e+06
5e+06
5e+06
5e+06
5e+06
5e+06
5e+06
5e+06
5e+06
5e+06
5e+06
5e+06
5e+06
5e+06
5e+06
5e+06
5e+06
5e+06
5e+06
5e+06
5e+06
5e+06
5e+06
5e+06
5e+06
5e+06
5e+06
5e+06
5e+06
5e+06
5e+06
5e+06
5e+06
5e+06
5e+06
5e+06
5e+06
5e+06
5e+06
5e+06
5e+06
5e+06
5e+06
5e+06
5e+06
5e+06
5e+06
5e+06
5e+06
5e+06
5e+06
5e+06
5e+06
5e+06
5e+06
5e+06
5e+06
5e+06
5e+06
5e+06
5e+06
5e+06
5e+06
5e+06
5e+06
5e+06
5e+06
5e+06
5e+06
5e+06
5e+06
5e+06
5e+06
5e+06
5e+06
5e+06
5e+06
5e+06
5e+06
5e+06
5e+06
5e+06
5e+06
5e+06
5e+06
5e+06
5e+06
5e+06
5e+06
5e+06
5e+06
5e+06
5e+06
5e+06
5e+06
5e+06
5e+06
5e+06
5e+06
5e+06
5e+06
5e+06
5e+06
5e+06
5e+06
5e+06
5e+06
5e+06
5e+06
5e+06
5e+06
5e+06
5e+06
5e+06
5e+06
5e+06
5e+06
5e+06
5e+06
5e+06
5e+06
5e+06
5e+06
5e+06
5e+06
5e+06
5e+06
5e+06
5e+06
5e+06
5e+06
5e+06
5e+06
5e+06
5e+06
5e+06
5e+06
5e+06
5e+06
5e+06
5e+06
5e+06
5e+06
5e+06
5e+06
5e+06
5e+06
5e+06
5e+06
5e+06
5e+06
5e+06
5e+06
5e+06
5e+06
5e+06
5e+06
5e+06
5e+06
5e+06
5e+06
5e+06
5e+06
5e+06
5e+06
5e+06
5e+06
5e+06
5e+06
5e+06
5e+06
5e+06
5e+06
5e+06
5e+06
5e+06
5e+06
5e+06
5e+06
5e+06
5e+06
5e+06
5e+06
5e+06
5e+06
5e+06
5e+06
5e+06
5e+06
5e+06
5e+06
5e+06
5e+06
5e+06
5e+06
5e+06
5e+06
5e+06
5e+06
5e+06
5e+06
5e+06
5e+06
5e+06
5e+06
5e+06
5e+06
5e+06
5e+06
5e+06
5e+06
5e+06
5e+06
5e+06
5e+06
5e+06
5e+06
5e+06
5e+06
5e+06
5e+06
5e+06
5e+06
5e+06
5e+06
5e+06
5e+06
5e+06
5e+06
5e+06
5e+06
5e+06
5e+06
5e+06
5e+06
5e+06
5e+06
5e+06
5e+06
5e+06
5e+06
5e+06
5e+06
5e+06
5e+06
5e+06
5e+06
5e+06
5e+06
5e+06
5e+06
5e+06
5e+06
5e+06
5e+06
5e+06
5e+06
5e+06
5e+06
5e+06
5e+06
5e+06
5e+06
5e+06
5e+06
5e+06
5e+06
5e+06
5e+06
5e+06
5e+06
5e+06
5e+06
5e+06
5e+06
5e+06
5e+06
5e+06
5e+06
5e+06
5e+06
5e+06
5e+06
5e+06
5e+06
5e+06
5e+06
5e+06
5e+06
5e+06
5e+06
5e+06
5e+06
5e+06
5e+06
5e+06
5e+06
5e+06
5e+06
5e+06
5e+06
5e+06
5e+06
5e+06
5e+06
5e+06
5e+06
5e+06
5e+06
5e+06
5e+06
5e+06
5e+06
5e+06
5e+06
5e+06
4.99999e+06
4.99999e+06
4.99999e+06
4.99999e+06
4.99998e+06
4.99998e+06
4.99997e+06
4.99997e+06
4.99996e+06
4.99994e+06
4.99993e+06
4.99991e+06
4.99988e+06
4.99985e+06
4.99982e+06
4.99977e+06
4.99971e+06
4.99965e+06
4.99956e+06
4.99946e+06
4.99934e+06
4.99919e+06
4.99902e+06
4.99881e+06
4.99856e+06
4.99827e+06
4.99793e+06
4.99754e+06
4.99708e+06
4.99655e+06
4.99594e+06
4.99524e+06
4.99445e+06
4.99355e+06
4.99253e+06
4.99139e+06
4.99011e+06
4.9887e+06
4.98712e+06
4.98539e+06
4.98348e+06
4.98139e+06
4.97912e+06
4.97666e+06
4.974e+06
4.97113e+06
4.96806e+06
4.96478e+06
4.96129e+06
4.95759e+06
4.95367e+06
4.94955e+06
4.94522e+06
4.94069e+06
4.93596e+06
4.93104e+06
4.92592e+06
4.92063e+06
4.91516e+06
4.90953e+06
4.90374e+06
4.8978e+06
4.89171e+06
4.8855e+06
4.87915e+06
4.87269e+06
4.86613e+06
4.85946e+06
4.8527e+06
4.84586e+06
4.83894e+06
4.83196e+06
4.82491e+06
4.81781e+06
4.81066e+06
4.80346e+06
4.79623e+06
4.78897e+06
4.78168e+06
4.77436e+06
4.76703e+06
4.75968e+06
4.75233e+06
4.74496e+06
4.73759e+06
4.73021e+06
4.72284e+06
4.71546e+06
4.70809e+06
4.70073e+06
4.69337e+06
4.68602e+06
4.67867e+06
4.67134e+06
4.66401e+06
4.6567e+06
4.6494e+06
4.6421e+06
4.63483e+06
4.62756e+06
4.6203e+06
4.61306e+06
4.60583e+06
4.59862e+06
4.59141e+06
4.58422e+06
4.57704e+06
4.56988e+06
4.56272e+06
4.55558e+06
4.54845e+06
4.54133e+06
4.53423e+06
4.52713e+06
4.52005e+06
4.51298e+06
4.50592e+06
4.49887e+06
4.49183e+06
4.4848e+06
4.47778e+06
4.47077e+06
4.46377e+06
4.45678e+06
4.4498e+06
4.44283e+06
4.43587e+06
4.42891e+06
4.42197e+06
4.41504e+06
4.40811e+06
4.40119e+06
4.39428e+06
4.38738e+06
4.38049e+06
4.3736e+06
4.36672e+06
4.35985e+06
4.35299e+06
4.34613e+06
4.33928e+06
4.33244e+06
4.32561e+06
4.31878e+06
4.31196e+06
4.30515e+06
4.29834e+06
4.29154e+06
4.28475e+06
4.27796e+06
4.27118e+06
4.26441e+06
4.25764e+06
4.25088e+06
4.24412e+06
4.23737e+06
4.23063e+06
4.2239e+06
4.21716e+06
4.21044e+06
4.20372e+06
4.19701e+06
4.1903e+06
4.1836e+06
4.17691e+06
4.17022e+06
4.16353e+06
4.15686e+06
4.15018e+06
4.14352e+06
4.13685e+06
4.1302e+06
4.12355e+06
4.1169e+06
4.11026e+06
4.10363e+06
4.097e+06
4.09037e+06
4.08375e+06
4.07714e+06
4.07053e+06
4.06392e+06
4.05732e+06
4.05073e+06
4.04414e+06
4.03755e+06
4.03097e+06
4.02439e+06
4.01781e+06
4.01124e+06
4.00468e+06
3.99811e+06
3.99155e+06
3.985e+06
3.97845e+06
3.9719e+06
3.96536e+06
3.95881e+06
3.95228e+06
3.94574e+06
3.93921e+06
3.93268e+06
3.92616e+06
3.91963e+06
3.91311e+06
3.9066e+06
3.90008e+06
3.89357e+06
3.88706e+06
3.88055e+06
3.87405e+06
3.86754e+06
3.86104e+06
3.85455e+06
3.84805e+06
3.84155e+06
3.83506e+06
3.82857e+06
3.82208e+06
3.81559e+06
3.80911e+06
3.80262e+06
3.79614e+06
3.78966e+06
3.78318e+06
3.7767e+06
3.77022e+06
3.76374e+06
3.75727e+06
3.75079e+06
3.74432e+06
3.73784e+06
3.73137e+06
3.7249e+06
3.71843e+06
3.71196e+06
3.70548e+06
3.69901e+06
3.69254e+06
3.68607e+06
3.6796e+06
3.67313e+06
3.66666e+06
3.66019e+06
3.65372e+06
3.64724e+06
3.64077e+06
3.6343e+06
3.62782e+06
3.62135e+06
3.61487e+06
3.60839e+06
3.60191e+06
3.59543e+06
3.58895e+06
3.58247e+06
3.57598e+06
3.56949e+06
3.56301e+06
3.55651e+06
3.55002e+06
3.54353e+06
3.53703e+06
3.53053e+06
3.52402e+06
3.51752e+06
3.51101e+06
3.5045e+06
3.49798e+06
3.49146e+06
3.48494e+06
3.47842e+06
3.47189e+06
3.46536e+06
3.45882e+06
3.45228e+06
3.44573e+06
3.43919e+06
3.43263e+06
3.42607e+06
3.41951e+06
3.41294e+06
3.40637e+06
3.39979e+06
3.39321e+06
3.38662e+06
3.38002e+06
3.37342e+06
3.36681e+06
3.3602e+06
3.35358e+06
3.34695e+06
3.34032e+06
3.33368e+06
3.32703e+06
3.32037e+06
3.31371e+06
3.30704e+06
3.30036e+06
3.29367e+06
3.28697e+06
3.28026e+06
3.27355e+06
3.26682e+06
3.26008e+06
3.25334e+06
3.24658e+06
3.23982e+06
3.23304e+06
3.22625e+06
3.21945e+06
3.21264e+06
3.20582e+06
3.19898e+06
3.19214e+06
3.18528e+06
3.17842e+06
3.17154e+06
3.16463e+06
3.15771e+06
3.15078e+06
3.14383e+06
3.13688e+06
3.1299e+06
3.1229e+06
3.11589e+06
3.10887e+06
3.10182e+06
3.09476e+06
3.08768e+06
3.08058e+06
3.07346e+06
3.06632e+06
3.05915e+06
3.05197e+06
3.04477e+06
3.03754e+06
3.03029e+06
3.02302e+06
3.01572e+06
3.0084e+06
3.00106e+06
2.99368e+06
2.98628e+06
2.97885e+06
2.97139e+06
2.9639e+06
2.95637e+06
2.94883e+06
2.94124e+06
2.93363e+06
2.92598e+06
2.9183e+06
2.91058e+06
2.90282e+06
2.89502e+06
2.88719e+06
2.87931e+06
2.87139e+06
2.86342e+06
2.85541e+06
2.84735e+06
2.83924e+06
2.83108e+06
2.82287e+06
2.8146e+06
2.80628e+06
2.7979e+06
2.78945e+06
2.78095e+06
2.77237e+06
2.76374e+06
2.75502e+06
2.74624e+06
2.73738e+06
2.72843e+06
2.71941e+06
2.71029e+06
2.70108e+06
2.69178e+06
2.68237e+06
2.67286e+06
2.66323e+06
2.65349e+06
2.64363e+06
2.63363e+06
2.6235e+06
2.61322e+06
2.60279e+06
2.59219e+06
2.58142e+06
2.57047e+06
2.55933e+06
2.54799e+06
2.53645e+06
2.52469e+06
2.51272e+06
2.50053e+06
2.48812e+06
2.47551e+06
2.46271e+06
2.44976e+06
2.43671e+06
2.42364e+06
2.41064e+06
2.39795e+06
2.38583e+06
2.37432e+06
2.36342e+06
2.35301e+06
2.34296e+06
2.33315e+06
2.32343e+06
2.31372e+06
2.30393e+06
2.29402e+06
2.28398e+06
2.2738e+06
2.26351e+06
2.25313e+06
2.24268e+06
2.23222e+06
2.22175e+06
2.21129e+06
2.20086e+06
2.19046e+06
2.18008e+06
2.16972e+06
2.15938e+06
2.14905e+06
2.13871e+06
2.12837e+06
2.11803e+06
2.10767e+06
2.09731e+06
2.08694e+06
2.07657e+06
2.0662e+06
2.05584e+06
2.04549e+06
2.03515e+06
2.02483e+06
2.01453e+06
2.00425e+06
1.99399e+06
1.98376e+06
1.97355e+06
1.96337e+06
1.95322e+06
1.9431e+06
1.93299e+06
1.92291e+06
1.91285e+06
1.90281e+06
1.89281e+06
1.88284e+06
1.87289e+06
1.86296e+06
1.85304e+06
1.84315e+06
1.8333e+06
1.8235e+06
1.81373e+06
1.80399e+06
1.79429e+06
1.78465e+06
1.77507e+06
1.76554e+06
1.75608e+06
1.74671e+06
1.73745e+06
1.72827e+06
1.71921e+06
1.71027e+06
1.7015e+06
1.69287e+06
1.68439e+06
1.67609e+06
1.66799e+06
1.66013e+06
1.65245e+06
1.64494e+06
1.63763e+06
1.63076e+06
1.62419e+06
1.61796e+06
1.61213e+06
1.60658e+06
1.60098e+06
1.59548e+06
1.59002e+06
1.58444e+06
1.57884e+06
1.57298e+06
1.56814e+06
1.5665e+06
1.5695e+06
1.57896e+06
1.59651e+06
1.62455e+06
1.66426e+06
1.71428e+06
1.76316e+06
1.79248e+06
)
;

boundaryField
{
    sideLeft
    {
        type            symmetryPlane;
    }
    sideRight
    {
        type            myWaveTransmissive;
        phi             phi.air;
        rho             rho.air;
        psi             thermo:psi.air;
        gamma           1.4;
        fieldInf        100000;
        lInf            10;
        value           uniform 1.79071e+06;
    }
    topbottom
    {
        type            empty;
    }
    frontback
    {
        type            empty;
    }
}


// ************************************************************************* //
