/*--------------------------------*- C++ -*----------------------------------*\
| =========                 |                                                 |
| \\      /  F ield         | OpenFOAM: The Open Source CFD Toolbox           |
|  \\    /   O peration     | Version:  2.4.0                                 |
|   \\  /    A nd           | Web:      www.OpenFOAM.org                      |
|    \\/     M anipulation  |                                                 |
\*---------------------------------------------------------------------------*/
FoamFile
{
    version     2.0;
    format      ascii;
    class       surfaceScalarField;
    location    "0.15";
    object      phi;
}
// * * * * * * * * * * * * * * * * * * * * * * * * * * * * * * * * * * * * * //

dimensions      [0 3 -1 0 0 0 0];

internalField   nonuniform List<scalar> 
999
(
-3.15805e-13
-9.91803e-13
-2.39454e-12
-2.73579e-12
-3.58883e-12
-2.97526e-12
-2.25367e-12
-2.57177e-12
-2.50958e-12
-8.60586e-13
-7.22559e-13
-1.24991e-12
-9.38982e-13
-5.13808e-13
1.72332e-13
3.78754e-13
5.43322e-13
1.0129e-12
1.73121e-12
2.08054e-12
2.50261e-12
3.20543e-12
1.46893e-12
1.87468e-12
1.39823e-12
3.68561e-12
2.62459e-12
1.53029e-12
1.09272e-12
7.31021e-13
7.67894e-13
-5.54224e-13
-7.26021e-13
-6.94179e-13
1.68423e-13
-6.35428e-13
-5.25473e-13
-7.60288e-13
4.47554e-13
-3.29615e-13
-3.72119e-13
1.68e-13
-4.54747e-13
-3.22625e-13
-1.86708e-12
-1.77011e-12
-2.7443e-12
-2.5795e-12
-2.84999e-12
-2.75047e-12
-2.41004e-12
-2.03065e-12
-1.23773e-12
-8.3844e-13
-2.13315e-12
-2.28313e-12
-2.34686e-12
-2.20581e-12
-1.94747e-12
-2.41209e-12
-2.3584e-12
-2.76258e-12
-1.7265e-12
-9.40848e-13
-5.98407e-13
-2.91074e-13
-5.79629e-13
-1.20553e-12
-6.537e-13
-1.64029e-12
-2.18799e-12
-2.26539e-12
-3.18594e-12
-2.45574e-12
-2.54331e-12
-2.92767e-12
-2.59592e-12
-1.98225e-12
-2.17212e-12
-2.6544e-12
-4.02189e-12
-3.62679e-12
-4.73134e-12
-5.42719e-12
-3.75441e-12
-3.66482e-12
-2.751e-12
-1.50828e-12
-1.37621e-12
-1.30055e-12
-1.35671e-12
-2.52885e-12
-2.31331e-12
-2.36772e-12
-8.11918e-13
5.14276e-13
8.23259e-13
2.70005e-13
6.82662e-13
8.43718e-13
9.02124e-13
4.39785e-13
-2.75034e-13
-1.13036e-12
-1.1909e-12
-9.44791e-13
-1.1312e-12
-2.84402e-13
-4.10602e-13
-1.04482e-12
-2.24927e-13
4.12114e-13
-8.13819e-13
-2.52457e-14
1.01129e-12
1.34628e-12
1.45335e-12
5.1159e-13
3.29586e-13
3.22708e-13
5.45794e-13
1.76143e-12
2.48095e-12
1.90663e-12
1.24582e-12
7.27209e-13
1.29299e-12
1.12198e-12
1.27921e-13
-1.15278e-12
-9.49773e-13
-6.42486e-13
-7.48607e-13
-5.23315e-13
-1.07069e-12
3.90176e-13
9.249e-13
2.04079e-12
2.74246e-12
3.05516e-12
3.00377e-12
4.542e-12
5.04178e-12
3.78163e-12
4.78714e-12
5.35607e-12
5.32437e-12
4.68734e-12
3.41374e-12
2.8666e-12
2.24851e-12
2.75546e-12
1.74671e-12
2.42888e-12
6.05504e-13
4.43337e-13
-2.8552e-13
-3.97904e-13
1.09477e-12
1.33582e-12
7.52051e-13
8.98311e-13
5.82645e-13
1.98952e-13
-4.94534e-15
-8.17075e-14
1.6551e-13
6.82684e-13
4.92213e-13
1.7073e-12
1.1791e-12
6.55508e-13
1.96977e-12
1.63048e-12
2.93747e-12
2.47684e-12
2.97114e-12
3.62005e-12
4.82417e-12
4.69353e-12
5.08104e-12
4.91076e-12
4.17059e-12
4.84513e-12
5.00469e-12
5.01499e-12
4.6899e-12
3.54608e-12
3.69127e-12
4.06829e-12
4.62224e-12
4.16602e-12
4.46416e-12
5.07381e-12
3.88933e-12
4.52958e-12
4.55507e-12
4.10279e-12
3.78947e-12
5.52948e-12
6.46731e-12
5.86758e-12
5.42761e-12
3.76574e-12
4.75915e-12
3.99459e-12
3.29347e-12
4.40029e-12
4.82488e-12
4.03895e-12
3.66771e-12
3.56205e-12
4.6135e-12
4.44329e-12
3.21667e-12
3.79182e-12
2.64808e-12
2.39549e-12
1.90937e-12
1.41766e-12
1.08802e-12
1.58869e-12
1.52706e-12
1.2051e-12
3.03755e-13
5.5857e-13
-6.17086e-14
5.96856e-13
8.33102e-13
2.79558e-13
1.85592e-13
2.65687e-12
1.89872e-12
2.25664e-12
2.76932e-12
2.30678e-12
1.45925e-12
1.14732e-12
1.10414e-12
1.1462e-12
2.60207e-12
1.62678e-12
2.20829e-12
3.01917e-12
2.98048e-12
3.07329e-12
3.69964e-12
3.17878e-12
2.83966e-12
3.16749e-12
2.77062e-12
1.24332e-12
2.40025e-12
3.47975e-12
3.3749e-12
2.71186e-12
4.21724e-12
4.04673e-12
3.55747e-12
3.52129e-12
2.6084e-12
2.85587e-12
1.54135e-12
2.15181e-12
1.83283e-12
1.54e-12
7.92162e-13
-1.31194e-12
-7.78278e-13
-2.27307e-13
-6.66362e-13
-2.76283e-14
1.84742e-13
-7.13128e-13
-4.84429e-13
-7.82234e-13
-8.94037e-13
-6.537e-13
-1.43417e-13
3.57828e-13
-5.82645e-13
-6.67166e-13
-3.50082e-13
3.98873e-13
1.19264e-12
1.50166e-12
1.65277e-12
1.08858e-12
1.28675e-12
1.19948e-12
1.61294e-12
1.22993e-12
1.69675e-12
2.09759e-12
2.29368e-12
8.0704e-13
-4.1371e-13
-1.3754e-12
-1.61015e-12
-1.47804e-12
-9.09286e-13
-1.52451e-13
2.55795e-13
-1.52294e-15
-9.66834e-13
-1.97591e-12
-1.30611e-12
-8.38829e-13
-5.64304e-13
-5.15155e-13
-3.35693e-13
-1.98951e-13
3.36401e-13
4.63441e-13
1.13687e-13
2.59874e-14
9.34012e-13
3.96338e-13
6.71671e-13
2.67261e-12
2.08379e-12
1.69246e-12
1.85773e-12
1.14416e-12
1.18221e-12
2.04535e-12
1.48103e-12
3.24939e-12
3.32045e-12
3.38289e-12
2.97939e-12
3.25247e-12
2.82416e-12
3.08886e-12
3.48799e-12
2.96403e-12
1.94297e-12
2.18629e-12
2.55415e-12
3.21227e-12
1.62797e-12
1.67505e-12
1.42528e-12
1.16186e-12
1.45118e-12
1.71725e-12
2.35722e-12
2.16967e-12
2.32119e-12
1.63759e-12
2.1787e-13
6.56251e-13
-5.68425e-14
-2.04807e-13
4.54746e-13
8.35911e-13
1.45192e-12
2.79382e-12
1.5543e-12
9.54871e-13
-1.42109e-13
1.32624e-12
1.46036e-12
2.53356e-12
5.40085e-13
-9.94757e-14
8.50769e-14
2.36653e-13
9.33797e-13
1.36098e-12
1.48732e-12
1.52188e-12
5.20706e-13
1.27605e-12
1.11963e-12
7.55706e-13
-3.42042e-13
-1.11427e-12
-2.12344e-12
-2.25116e-12
-7.18296e-13
-5.2613e-13
4.69071e-13
1.78132e-12
1.91733e-12
3.03564e-12
3.0999e-12
3.77831e-12
3.39421e-12
2.90917e-12
2.32608e-12
3.08473e-12
9.61498e-13
5.68835e-13
-1.22004e-12
-2.4218e-12
-2.94983e-12
-3.38435e-12
-3.95661e-12
-4.26144e-12
-3.02429e-12
-3.88377e-12
-1.66311e-12
-6.51813e-13
1.5632e-13
9.94757e-14
9.79329e-13
1.14125e-12
3.1671e-13
-7.59943e-13
-3.96624e-13
-9.17752e-13
-1.41187e-12
-1.75579e-12
-2.24371e-12
-3.50638e-12
-3.27572e-12
-3.26255e-12
-2.90042e-12
-2.77643e-12
-3.34727e-12
-2.45452e-12
-2.71099e-12
-3.11987e-12
-3.06707e-12
-4.10668e-12
-4.10463e-12
-4.15434e-12
-3.35965e-12
-4.08399e-12
-4.09539e-12
-3.98477e-12
-3.1789e-12
-1.88595e-12
-1.20055e-12
-9.81611e-13
-1.06385e-12
-1.13961e-12
-3.11351e-13
-1.18182e-13
7.95807e-13
2.54968e-12
4.20561e-12
7.06885e-12
9.77418e-12
1.3732e-11
1.83956e-11
2.6232e-11
3.73574e-11
5.3371e-11
7.79196e-11
1.14848e-10
1.70841e-10
2.56165e-10
3.8664e-10
5.87258e-10
8.89031e-10
1.34486e-09
2.02795e-09
3.05021e-09
4.57048e-09
6.82961e-09
1.0175e-08
1.51099e-08
2.23689e-08
3.30064e-08
4.85471e-08
7.11743e-08
1.04011e-07
1.51503e-07
2.19958e-07
3.18299e-07
4.59089e-07
6.59958e-07
9.45558e-07
1.35022e-06
1.92156e-06
2.72541e-06
3.85239e-06
5.42677e-06
7.61827e-06
1.06578e-05
1.48582e-05
2.06416e-05
2.85755e-05
3.9419e-05
5.41842e-05
7.4214e-05
0.000101283
0.000137726
0.000186601
0.000251899
0.000338797
0.000453991
0.000606095
0.00080614
0.00106819
0.00141008
0.00185434
0.00242927
0.00317026
0.00412131
0.00533692
0.00688417
0.00884521
0.0113202
0.0144303
0.0183219
0.02317
0.0291834
0.0366094
0.0457391
0.0569132
0.0705282
0.0870423
0.106982
0.130947
0.159619
0.193762
0.234234
0.281983
0.338056
0.403595
0.47984
0.568124
0.66987
0.786582
0.919838
1.07128
1.24258
1.43548
1.65169
1.89295
2.16095
2.45735
2.78374
3.14162
3.53237
3.95727
4.41744
4.91383
5.44725
6.01832
6.62746
7.27493
7.96077
8.68488
9.44694
10.2465
11.0828
11.9552
12.8627
13.8043
14.7788
15.7849
16.8214
17.8868
18.9796
20.0985
21.242
22.4085
23.5965
24.8047
26.0314
27.2754
28.5353
29.8097
31.0974
32.3972
33.7078
35.0283
36.3575
37.6946
39.0387
40.3888
41.7442
43.1043
44.4683
45.8358
47.206
48.5786
49.9531
51.3291
52.7062
54.0842
55.4628
56.8417
58.2208
59.5998
60.9786
62.3571
63.7352
65.1127
66.4897
67.866
69.2416
70.6165
71.9907
73.3641
74.7368
76.1087
77.4799
78.8504
80.2202
81.5893
82.9578
84.3257
85.693
87.0597
88.4259
89.7916
91.1569
92.5218
93.8862
95.2504
96.6142
97.9778
99.3411
100.704
102.067
103.43
104.793
106.156
107.518
108.881
110.244
111.606
112.969
114.332
115.695
117.059
118.422
119.786
121.15
122.514
123.879
125.244
126.609
127.975
129.341
130.707
132.074
133.441
134.809
136.177
137.546
138.915
140.285
141.655
143.026
144.397
145.769
147.142
148.515
149.889
151.263
152.638
154.014
155.39
156.767
158.144
159.523
160.902
162.281
163.662
165.043
166.425
167.807
169.191
170.575
171.96
173.346
174.733
176.12
177.509
178.898
180.289
181.68
183.072
184.465
185.859
187.255
188.651
190.048
191.447
192.846
194.247
195.649
197.052
198.456
199.862
201.269
202.677
204.086
205.497
206.909
208.322
209.737
211.153
212.571
213.99
215.41
216.832
218.256
219.681
221.108
222.536
223.966
225.398
226.831
228.266
229.703
231.141
232.581
234.023
235.467
236.912
238.359
239.808
241.26
242.712
244.167
245.624
247.083
248.544
250.007
251.472
252.939
254.408
255.879
257.352
258.828
260.306
261.786
263.268
264.753
266.24
267.729
269.221
270.715
272.211
273.71
275.212
276.716
278.223
279.732
281.245
282.759
284.277
285.797
287.32
288.846
290.375
291.907
293.442
294.979
296.52
298.064
299.611
301.161
302.714
304.271
305.831
307.394
308.961
310.531
312.104
313.681
315.262
316.846
318.434
320.025
321.62
323.219
324.822
326.429
328.04
329.655
331.274
332.897
334.524
336.156
337.792
339.432
341.077
342.726
344.38
346.039
347.702
349.369
351.043
352.721
354.404
356.091
357.785
359.484
361.188
362.897
364.613
366.334
368.06
369.793
371.531
373.275
375.026
376.782
378.546
380.316
382.092
383.874
385.663
387.458
389.259
391.068
392.888
394.714
396.548
398.387
400.236
402.093
403.958
405.831
407.713
409.603
411.502
413.41
415.328
417.254
419.191
421.137
423.094
425.06
427.037
429.024
431.023
433.032
435.054
437.086
439.13
441.187
443.257
445.341
447.438
449.548
451.67
453.807
455.959
458.125
460.308
462.505
464.72
466.95
469.198
471.464
473.748
476.05
478.372
480.714
483.077
485.461
487.867
490.296
492.749
495.225
497.728
500.255
502.81
505.392
508.004
510.646
513.321
516.027
518.769
521.545
524.359
527.212
530.106
533.042
536.025
539.053
542.132
545.262
548.45
551.693
555.001
558.372
561.816
565.33
568.924
572.597
576.358
580.205
584.148
588.183
592.319
596.547
600.872
605.28
609.761
614.229
617.793
621.19
624.443
627.54
630.495
633.33
636.082
638.781
641.46
644.139
646.837
649.561
652.316
655.097
657.901
660.718
663.541
666.36
669.171
671.967
674.748
677.512
680.26
682.993
685.715
688.424
691.126
693.82
696.508
699.188
701.863
704.528
707.186
709.832
712.466
715.086
717.689
720.275
722.843
725.394
727.927
730.441
732.933
735.404
737.854
740.284
742.697
745.093
747.47
749.824
752.155
754.464
756.758
759.037
761.3
763.536
765.743
767.924
770.084
772.222
774.325
776.393
778.428
780.43
782.386
784.287
786.138
787.936
789.671
791.327
792.904
794.407
795.828
797.151
798.359
799.456
800.476
801.426
802.199
802.767
803.212
803.424
803.453
803.553
803.582
803.564
803.614
803.68
803.803
803.746
802.779
799.937
794.242
784.602
770.523
750.565
724.27
698.025
684.125
)
;

boundaryField
{
    sideLeft
    {
        type            symmetryPlane;
        value           uniform 0;
    }
    sideRight
    {
        type            calculated;
        value           uniform 684.543;
    }
    topbottom
    {
        type            empty;
        value           nonuniform 0();
    }
    frontback
    {
        type            empty;
        value           nonuniform 0();
    }
}


// ************************************************************************* //
