/*--------------------------------*- C++ -*----------------------------------*\
| =========                 |                                                 |
| \\      /  F ield         | OpenFOAM: The Open Source CFD Toolbox           |
|  \\    /   O peration     | Version:  2.4.0                                 |
|   \\  /    A nd           | Web:      www.OpenFOAM.org                      |
|    \\/     M anipulation  |                                                 |
\*---------------------------------------------------------------------------*/
FoamFile
{
    version     2.0;
    format      ascii;
    class       surfaceScalarField;
    location    "0.15";
    object      phi.water;
}
// * * * * * * * * * * * * * * * * * * * * * * * * * * * * * * * * * * * * * //

dimensions      [0 3 -1 0 0 0 0];

internalField   nonuniform List<scalar> 
999
(
-3.15878e-14
-9.91803e-13
-2.3377e-12
-2.73579e-12
-3.24777e-12
-3.03211e-12
-2.48104e-12
-2.57177e-12
-2.45274e-12
-8.03742e-13
-8.9309e-13
-1.70466e-12
-7.11608e-13
-5.13808e-13
2.29175e-13
3.78754e-13
2.59105e-13
1.52449e-12
1.39015e-12
2.08054e-12
3.24158e-12
2.75068e-12
1.86684e-12
1.19256e-12
1.56876e-12
3.91299e-12
2.5109e-12
1.41661e-12
8.08504e-13
7.31021e-13
4.26834e-13
2.41584e-13
-1.01024e-12
-6.37336e-13
-5.89504e-14
-4.08054e-13
-5.82317e-13
-7.60288e-13
3.33867e-13
1.14459e-14
-5.42649e-13
-5.93739e-14
-2.84217e-13
-7.20529e-13
-1.18496e-12
-2.2817e-12
-2.63061e-12
-2.69318e-12
-2.67946e-12
-2.97784e-12
-1.89845e-12
-2.37171e-12
-1.12405e-12
-8.3844e-13
-2.36053e-12
-2.28313e-12
-2.06264e-12
-2.09212e-12
-2.28853e-12
-2.18472e-12
-2.64262e-12
-2.76258e-12
-1.55597e-12
-9.40848e-13
-7.12094e-13
-2.91074e-13
-6.93316e-13
-1.09185e-12
-6.537e-13
-2.0382e-12
-1.84693e-12
-2.1517e-12
-3.24278e-12
-2.22837e-12
-2.77068e-12
-2.87082e-12
-2.88014e-12
-1.64119e-12
-2.2858e-12
-2.42703e-12
-4.19242e-12
-3.68364e-12
-4.90187e-12
-5.42719e-12
-3.81126e-12
-3.26692e-12
-2.86469e-12
-1.45144e-12
-1.03515e-12
-1.69845e-12
-1.58408e-12
-1.90358e-12
-2.88174e-12
-1.85613e-12
-9.25605e-13
1.73215e-13
8.23259e-13
-7.10552e-14
1.08057e-12
8.43718e-13
1.01581e-12
2.69254e-13
9.18346e-15
-1.1872e-12
-1.41827e-12
-1.22901e-12
-5.05918e-13
-6.25462e-13
-5.24289e-13
-7.60602e-13
-3.38614e-13
-2.70007e-13
-1.80112e-14
-8.20891e-14
1.52288e-12
9.48381e-13
1.33967e-12
5.68433e-13
2.72743e-13
3.79551e-13
2.61577e-13
1.76143e-12
3.39045e-12
1.67925e-12
1.01845e-12
1.01143e-12
1.06562e-12
1.06514e-12
-9.94528e-14
-1.20962e-12
-6.65556e-13
-8.13016e-13
-8.62294e-13
-8.64376e-13
-1.04352e-13
4.91157e-14
5.8384e-13
2.15447e-12
2.68562e-12
2.7141e-12
3.34483e-12
4.76937e-12
4.58704e-12
3.83847e-12
4.90083e-12
5.58345e-12
4.81278e-12
4.97156e-12
3.81165e-12
2.69607e-12
2.02113e-12
3.03968e-12
1.57618e-12
2.25835e-12
8.32878e-13
5.00181e-13
-1.1499e-13
-1.13687e-13
8.10557e-13
1.05161e-12
6.38364e-13
8.41468e-13
8.10019e-13
2.84218e-14
-4.94536e-15
2.0251e-13
-5.02027e-15
8.53214e-13
6.62743e-13
1.08202e-12
1.12225e-12
7.69195e-13
1.91293e-12
2.08523e-12
2.76694e-12
2.47684e-12
3.36904e-12
3.22215e-12
4.71049e-12
4.63668e-12
5.19473e-12
4.68338e-12
4.34112e-12
4.61776e-12
4.94785e-12
4.73077e-12
5.31517e-12
3.3187e-12
4.14602e-12
3.95461e-12
4.67908e-12
4.16602e-12
4.35047e-12
5.13065e-12
4.00301e-12
4.64326e-12
4.27085e-12
4.44385e-12
3.44841e-12
5.70001e-12
6.18309e-12
6.1518e-12
5.0297e-12
3.93627e-12
4.81599e-12
4.22196e-12
3.35031e-12
4.40029e-12
4.65434e-12
3.81158e-12
3.72455e-12
3.73258e-12
4.49981e-12
4.44329e-12
4.06932e-12
2.88232e-12
2.53439e-12
2.90709e-12
1.85252e-12
1.19029e-12
9.74328e-13
1.58869e-12
1.52706e-12
1.2051e-12
3.60598e-13
4.44883e-13
3.36195e-13
3.12639e-13
1.00363e-12
-1.18346e-13
6.97183e-13
2.37265e-12
2.12609e-12
1.85874e-12
3.11038e-12
2.07941e-12
1.74347e-12
6.92574e-13
1.33151e-12
1.25989e-12
2.14732e-12
1.62678e-12
2.4925e-12
2.62126e-12
2.80995e-12
3.4712e-12
3.47227e-12
3.463e-12
2.83966e-12
2.76958e-12
3.28221e-12
1.64122e-12
1.49076e-12
3.36606e-12
3.54543e-12
2.88239e-12
4.16039e-12
3.8762e-12
3.84168e-12
3.46444e-12
2.49471e-12
2.74219e-12
1.54135e-12
2.26549e-12
2.0602e-12
1.36947e-12
1.07638e-12
-1.2551e-12
-1.0625e-12
-5.11524e-13
7.2602e-14
-8.44717e-14
-2.13162e-13
-2.58381e-13
-5.98115e-13
-9.52764e-13
-9.5088e-13
-6.537e-13
-8.65737e-14
1.30454e-13
-3.55271e-13
-6.67166e-13
-1.79552e-13
5.7812e-14
1.5337e-12
1.44482e-12
1.42539e-12
1.08858e-12
1.28675e-12
1.0858e-12
1.72662e-12
1.40046e-12
1.69675e-12
1.9839e-12
2.29368e-12
9.77571e-13
-5.8424e-13
-1.60278e-12
-1.32593e-12
-1.59173e-12
-6.81912e-13
-3.22981e-13
3.12638e-13
5.53205e-14
-1.13736e-12
-1.86222e-12
-1.19242e-12
-8.38829e-13
-5.07461e-13
-6.85685e-13
-2.78849e-13
-1.98951e-13
4.50087e-13
5.20284e-13
-1.13687e-13
1.96518e-13
7.06638e-13
4.53181e-13
6.71671e-13
2.89998e-12
1.9701e-12
1.57878e-12
2.02826e-12
1.14416e-12
1.01168e-12
1.93167e-12
1.7084e-12
3.13571e-12
3.60467e-12
3.49658e-12
2.8657e-12
3.47984e-12
2.59679e-12
3.1457e-12
3.54483e-12
2.96403e-12
1.82929e-12
2.24314e-12
2.89521e-12
2.58699e-12
2.31009e-12
1.27715e-12
1.14106e-12
1.16186e-12
1.84909e-12
1.83094e-12
2.12985e-12
2.22651e-12
1.92328e-12
1.75128e-12
6.72617e-13
8.78169e-14
1.13688e-13
-1.47964e-13
5.68425e-14
1.29066e-12
1.67929e-12
2.39592e-12
1.21324e-12
7.84341e-13
3.12639e-13
1.55362e-12
1.85826e-12
1.96513e-12
4.83242e-13
1.42112e-14
-1.9914e-13
5.2087e-13
8.20111e-13
1.81573e-12
1.54417e-12
1.29451e-12
5.20706e-13
8.7815e-13
1.17647e-12
4.14646e-13
5.58622e-14
-1.45533e-12
-2.0666e-12
-2.08062e-12
-6.61453e-13
-4.69287e-13
4.12227e-13
1.78132e-12
2.08786e-12
2.58089e-12
3.44096e-12
3.892e-12
3.5079e-12
2.85233e-12
2.38293e-12
3.36895e-12
5.0675e-13
2.84618e-13
-1.10636e-12
-2.36496e-12
-3.12036e-12
-3.04329e-12
-3.78608e-12
-4.09091e-12
-3.42219e-12
-3.59956e-12
-2.11786e-12
-4.81283e-13
-1.42105e-14
4.40536e-13
6.95111e-13
1.31178e-12
-1.38038e-13
-5.3257e-13
1.28029e-15
-1.08828e-12
-1.80978e-12
-1.52841e-12
-1.95949e-12
-3.90428e-12
-3.27572e-12
-3.37623e-12
-2.50251e-12
-2.49221e-12
-3.63148e-12
-2.90927e-12
-2.82467e-12
-2.72196e-12
-3.18076e-12
-3.99299e-12
-4.21831e-12
-4.04066e-12
-3.4165e-12
-4.02715e-12
-4.20907e-12
-3.92793e-12
-3.12205e-12
-1.77226e-12
-1.1437e-12
-9.81611e-13
-6.091e-13
-1.48067e-12
-6.52412e-13
-1.75025e-13
1.08002e-12
2.37915e-12
4.20561e-12
7.29622e-12
9.37627e-12
1.39594e-11
1.82819e-11
2.6232e-11
3.74142e-11
5.32005e-11
7.71806e-11
1.14848e-10
1.70273e-10
2.55597e-10
3.85162e-10
5.85837e-10
8.8636e-10
1.34088e-09
2.02238e-09
3.04111e-09
4.5582e-09
6.81034e-09
1.01475e-08
1.50698e-08
2.23106e-08
3.29208e-08
4.84249e-08
7.09978e-08
1.03758e-07
1.5114e-07
2.19441e-07
3.17564e-07
4.5805e-07
6.58492e-07
9.43498e-07
1.34733e-06
1.91753e-06
2.71982e-06
3.84465e-06
5.41609e-06
7.6036e-06
1.06377e-05
1.48308e-05
2.06044e-05
2.85251e-05
3.93512e-05
5.40931e-05
7.40921e-05
0.000101121
0.00013751
0.000186317
0.000251524
0.000338307
0.000453352
0.000605265
0.000805066
0.0010668
0.00140831
0.00185207
0.00242639
0.00316661
0.00411672
0.00533117
0.00687698
0.00883629
0.0113091
0.0144168
0.0183053
0.0231498
0.0291589
0.0365798
0.0457035
0.0568707
0.0704778
0.0869827
0.106912
0.130865
0.159523
0.193652
0.234107
0.281838
0.337891
0.403409
0.479631
0.56789
0.66961
0.786296
0.919524
1.07093
1.24221
1.43508
1.65126
1.89249
2.16047
2.45684
2.78321
3.14107
3.53181
3.95669
4.41684
4.91323
5.44665
6.01771
6.62686
7.27433
7.96019
8.68431
9.44639
10.2459
11.0823
11.9547
12.8623
13.8039
14.7784
15.7846
16.821
17.8865
18.9794
20.0983
21.2418
22.4083
23.5964
24.8046
26.0314
27.2754
28.5353
29.8097
31.0974
32.3972
33.7079
35.0283
36.3576
37.6947
39.0388
40.3889
41.7444
43.1045
44.4685
45.8359
47.2062
48.5788
49.9532
51.3292
52.7064
54.0844
55.463
56.8419
58.221
59.6
60.9788
62.3573
63.7354
65.1129
66.4898
67.8661
69.2418
70.6167
71.9908
73.3643
74.7369
76.1089
77.4801
78.8506
80.2204
81.5895
82.958
84.3258
85.6931
87.0598
88.4261
89.7918
91.157
92.5219
93.8864
95.2505
96.6144
97.9779
99.3413
100.704
102.067
103.43
104.793
106.156
107.518
108.881
110.244
111.606
112.969
114.332
115.695
117.059
118.422
119.786
121.15
122.514
123.879
125.244
126.609
127.975
129.341
130.707
132.074
133.441
134.809
136.177
137.546
138.915
140.285
141.655
143.026
144.397
145.769
147.142
148.515
149.889
151.263
152.638
154.014
155.39
156.767
158.144
159.523
160.902
162.281
163.662
165.043
166.425
167.807
169.191
170.575
171.96
173.346
174.733
176.12
177.509
178.898
180.289
181.68
183.072
184.465
185.859
187.255
188.651
190.048
191.447
192.846
194.247
195.649
197.052
198.456
199.862
201.269
202.677
204.086
205.497
206.909
208.322
209.737
211.153
212.571
213.99
215.41
216.832
218.256
219.681
221.108
222.536
223.966
225.398
226.831
228.266
229.703
231.141
232.581
234.023
235.467
236.912
238.359
239.809
241.26
242.713
244.167
245.624
247.083
248.544
250.007
251.472
252.939
254.408
255.879
257.352
258.828
260.306
261.786
263.268
264.753
266.24
267.729
269.221
270.715
272.211
273.71
275.212
276.716
278.223
279.732
281.245
282.759
284.277
285.797
287.32
288.846
290.375
291.907
293.442
294.979
296.52
298.064
299.611
301.161
302.714
304.271
305.831
307.394
308.961
310.531
312.104
313.681
315.262
316.846
318.434
320.025
321.62
323.219
324.822
326.429
328.04
329.655
331.274
332.897
334.524
336.156
337.792
339.432
341.077
342.726
344.38
346.039
347.702
349.369
351.043
352.721
354.404
356.091
357.785
359.484
361.188
362.897
364.613
366.334
368.06
369.792
371.531
373.275
375.026
376.782
378.546
380.316
382.092
383.874
385.663
387.458
389.259
391.068
392.888
394.714
396.548
398.387
400.236
402.093
403.958
405.831
407.713
409.603
411.502
413.41
415.328
417.254
419.191
421.137
423.094
425.06
427.037
429.024
431.023
433.032
435.054
437.086
439.13
441.187
443.257
445.341
447.438
449.548
451.67
453.807
455.959
458.126
460.308
462.506
464.72
466.95
469.198
471.464
473.748
476.05
478.372
480.714
483.077
485.461
487.867
490.296
492.749
495.225
497.728
500.255
502.81
505.392
508.005
510.646
513.321
516.027
518.769
521.545
524.359
527.212
530.106
533.042
536.025
539.053
542.132
545.262
548.45
551.693
555.001
558.372
561.816
565.33
568.925
572.597
576.358
580.205
584.148
588.183
592.319
596.547
600.872
605.28
609.761
614.229
617.793
621.19
624.444
627.54
630.495
633.33
636.082
638.781
641.46
644.139
646.837
649.561
652.316
655.097
657.901
660.718
663.541
666.36
669.171
671.967
674.748
677.511
680.26
682.993
685.715
688.424
691.126
693.82
696.508
699.188
701.863
704.528
707.186
709.832
712.466
715.086
717.689
720.275
722.843
725.394
727.927
730.44
732.933
735.404
737.853
740.284
742.697
745.093
747.47
749.823
752.155
754.464
756.758
759.037
761.3
763.536
765.742
767.924
770.084
772.222
774.325
776.392
778.428
780.429
782.386
784.287
786.138
787.936
789.671
791.326
792.904
794.407
795.827
797.151
798.358
799.456
800.476
801.425
802.199
802.768
803.218
803.423
803.455
803.536
803.56
803.542
803.58
803.636
803.755
803.705
802.747
799.926
794.233
784.593
770.519
750.57
724.264
698.081
684.152
)
;

boundaryField
{
    sideLeft
    {
        type            symmetryPlane;
        value           uniform 0;
    }
    sideRight
    {
        type            calculated;
        value           uniform 2157.17;
    }
    topbottom
    {
        type            empty;
        value           nonuniform 0();
    }
    frontback
    {
        type            empty;
        value           nonuniform 0();
    }
}


// ************************************************************************* //
