/*--------------------------------*- C++ -*----------------------------------*\
| =========                 |                                                 |
| \\      /  F ield         | OpenFOAM: The Open Source CFD Toolbox           |
|  \\    /   O peration     | Version:  2.4.0                                 |
|   \\  /    A nd           | Web:      www.OpenFOAM.org                      |
|    \\/     M anipulation  |                                                 |
\*---------------------------------------------------------------------------*/
FoamFile
{
    version     2.0;
    format      ascii;
    class       volScalarField;
    location    "0.15";
    object      pMean;
}
// * * * * * * * * * * * * * * * * * * * * * * * * * * * * * * * * * * * * * //

dimensions      [1 -1 -2 0 0 0 0];

internalField   nonuniform List<scalar> 
1000
(
5e+06
5e+06
5e+06
5e+06
5e+06
5e+06
5e+06
5e+06
5e+06
5e+06
5e+06
5e+06
5e+06
5e+06
5e+06
5e+06
5e+06
5e+06
5e+06
5e+06
5e+06
5e+06
5e+06
5e+06
5e+06
5e+06
5e+06
5e+06
5e+06
5e+06
5e+06
5e+06
5e+06
5e+06
5e+06
5e+06
5e+06
5e+06
5e+06
5e+06
5e+06
5e+06
5e+06
5e+06
5e+06
5e+06
5e+06
5e+06
5e+06
5e+06
5e+06
5e+06
5e+06
5e+06
5e+06
5e+06
5e+06
5e+06
5e+06
5e+06
5e+06
5e+06
5e+06
5e+06
5e+06
5e+06
5e+06
5e+06
5e+06
5e+06
5e+06
5e+06
5e+06
5e+06
5e+06
5e+06
5e+06
5e+06
5e+06
5e+06
5e+06
5e+06
5e+06
5e+06
5e+06
5e+06
5e+06
5e+06
5e+06
5e+06
5e+06
5e+06
5e+06
5e+06
5e+06
5e+06
5e+06
5e+06
5e+06
5e+06
5e+06
5e+06
5e+06
5e+06
5e+06
5e+06
5e+06
5e+06
5e+06
5e+06
5e+06
5e+06
5e+06
5e+06
5e+06
5e+06
5e+06
5e+06
5e+06
5e+06
5e+06
5e+06
5e+06
5e+06
5e+06
5e+06
5e+06
5e+06
5e+06
5e+06
5e+06
5e+06
5e+06
5e+06
5e+06
5e+06
5e+06
5e+06
5e+06
5e+06
5e+06
5e+06
5e+06
5e+06
5e+06
5e+06
5e+06
5e+06
5e+06
5e+06
5e+06
5e+06
5e+06
5e+06
5e+06
5e+06
5e+06
5e+06
5e+06
5e+06
5e+06
5e+06
5e+06
5e+06
5e+06
5e+06
5e+06
5e+06
5e+06
5e+06
5e+06
5e+06
5e+06
5e+06
5e+06
5e+06
5e+06
5e+06
5e+06
5e+06
5e+06
5e+06
5e+06
5e+06
5e+06
5e+06
5e+06
5e+06
5e+06
5e+06
5e+06
5e+06
5e+06
5e+06
5e+06
5e+06
5e+06
5e+06
5e+06
5e+06
5e+06
5e+06
5e+06
5e+06
5e+06
5e+06
5e+06
5e+06
5e+06
5e+06
5e+06
5e+06
5e+06
5e+06
5e+06
5e+06
5e+06
5e+06
5e+06
5e+06
5e+06
5e+06
5e+06
5e+06
5e+06
5e+06
5e+06
5e+06
5e+06
5e+06
5e+06
5e+06
5e+06
5e+06
5e+06
5e+06
5e+06
5e+06
5e+06
5e+06
5e+06
5e+06
5e+06
5e+06
5e+06
5e+06
5e+06
5e+06
5e+06
5e+06
5e+06
5e+06
5e+06
5e+06
5e+06
5e+06
5e+06
5e+06
5e+06
5e+06
5e+06
5e+06
5e+06
5e+06
5e+06
5e+06
5e+06
5e+06
5e+06
5e+06
5e+06
5e+06
5e+06
5e+06
5e+06
5e+06
5e+06
5e+06
5e+06
5e+06
5e+06
5e+06
5e+06
5e+06
5e+06
5e+06
5e+06
5e+06
5e+06
5e+06
5e+06
5e+06
5e+06
5e+06
5e+06
5e+06
5e+06
5e+06
5e+06
5e+06
5e+06
5e+06
5e+06
5e+06
5e+06
5e+06
5e+06
5e+06
5e+06
5e+06
5e+06
5e+06
5e+06
5e+06
5e+06
5e+06
5e+06
5e+06
5e+06
5e+06
5e+06
5e+06
5e+06
5e+06
5e+06
5e+06
5e+06
5e+06
5e+06
5e+06
5e+06
5e+06
5e+06
5e+06
5e+06
5e+06
5e+06
5e+06
5e+06
5e+06
5e+06
5e+06
5e+06
5e+06
5e+06
5e+06
5e+06
5e+06
5e+06
5e+06
5e+06
5e+06
5e+06
5e+06
5e+06
5e+06
5e+06
5e+06
5e+06
5e+06
5e+06
5e+06
5e+06
5e+06
5e+06
5e+06
5e+06
5e+06
5e+06
5e+06
5e+06
5e+06
5e+06
5e+06
5e+06
5e+06
5e+06
5e+06
5e+06
5e+06
5e+06
5e+06
5e+06
5e+06
5e+06
5e+06
5e+06
5e+06
5e+06
5e+06
5e+06
5e+06
5e+06
5e+06
5e+06
5e+06
5e+06
5e+06
5e+06
5e+06
5e+06
5e+06
5e+06
5e+06
5e+06
5e+06
5e+06
5e+06
5e+06
5e+06
5e+06
5e+06
5e+06
5e+06
5e+06
5e+06
5e+06
5e+06
5e+06
5e+06
5e+06
5e+06
5e+06
5e+06
5e+06
5e+06
5e+06
5e+06
5e+06
5e+06
5e+06
5e+06
5e+06
5e+06
5e+06
5e+06
5e+06
5e+06
5e+06
5e+06
5e+06
5e+06
5e+06
5e+06
5e+06
5e+06
5e+06
5e+06
5e+06
5e+06
5e+06
5e+06
5e+06
5e+06
5e+06
5e+06
5e+06
5e+06
5e+06
5e+06
5e+06
5e+06
5e+06
5e+06
5e+06
5e+06
5e+06
5e+06
5e+06
5e+06
5e+06
5e+06
5e+06
5e+06
5e+06
5e+06
5e+06
5e+06
5e+06
5e+06
5e+06
5e+06
5e+06
5e+06
5e+06
5e+06
5e+06
5e+06
5e+06
5e+06
5e+06
5e+06
5e+06
5e+06
5e+06
5e+06
5e+06
5e+06
5e+06
5e+06
5e+06
5e+06
5e+06
5e+06
5e+06
5e+06
5e+06
5e+06
5e+06
5e+06
5e+06
5e+06
5e+06
5e+06
5e+06
4.99999e+06
4.99999e+06
4.99999e+06
4.99999e+06
4.99999e+06
4.99998e+06
4.99998e+06
4.99998e+06
4.99997e+06
4.99997e+06
4.99996e+06
4.99995e+06
4.99994e+06
4.99993e+06
4.99992e+06
4.9999e+06
4.99988e+06
4.99986e+06
4.99984e+06
4.99981e+06
4.99978e+06
4.99975e+06
4.99971e+06
4.99967e+06
4.99962e+06
4.99957e+06
4.9995e+06
4.99944e+06
4.99936e+06
4.99928e+06
4.99919e+06
4.9991e+06
4.99899e+06
4.99887e+06
4.99875e+06
4.99861e+06
4.99846e+06
4.99831e+06
4.99814e+06
4.99796e+06
4.99776e+06
4.99756e+06
4.99734e+06
4.9971e+06
4.99686e+06
4.9966e+06
4.99632e+06
4.99603e+06
4.99573e+06
4.99541e+06
4.99507e+06
4.99472e+06
4.99435e+06
4.99397e+06
4.99358e+06
4.99316e+06
4.99273e+06
4.99228e+06
4.99182e+06
4.99134e+06
4.99085e+06
4.99033e+06
4.9898e+06
4.98926e+06
4.98869e+06
4.98811e+06
4.98752e+06
4.9869e+06
4.98627e+06
4.98563e+06
4.98496e+06
4.98428e+06
4.98358e+06
4.98287e+06
4.98213e+06
4.98138e+06
4.98062e+06
4.97983e+06
4.97903e+06
4.97822e+06
4.97738e+06
4.97653e+06
4.97566e+06
4.97478e+06
4.97388e+06
4.97296e+06
4.97202e+06
4.97107e+06
4.9701e+06
4.96911e+06
4.96811e+06
4.96709e+06
4.96605e+06
4.965e+06
4.96393e+06
4.96284e+06
4.96174e+06
4.96062e+06
4.95948e+06
4.95832e+06
4.95715e+06
4.95596e+06
4.95476e+06
4.95353e+06
4.95229e+06
4.95104e+06
4.94976e+06
4.94847e+06
4.94717e+06
4.94584e+06
4.9445e+06
4.94315e+06
4.94177e+06
4.94038e+06
4.93897e+06
4.93755e+06
4.93611e+06
4.93465e+06
4.93317e+06
4.93168e+06
4.93017e+06
4.92864e+06
4.9271e+06
4.92554e+06
4.92396e+06
4.92237e+06
4.92076e+06
4.91913e+06
4.91748e+06
4.91582e+06
4.91414e+06
4.91244e+06
4.91073e+06
4.909e+06
4.90725e+06
4.90549e+06
4.90371e+06
4.90191e+06
4.90009e+06
4.89826e+06
4.89641e+06
4.89454e+06
4.89266e+06
4.89075e+06
4.88884e+06
4.8869e+06
4.88495e+06
4.88297e+06
4.88099e+06
4.87898e+06
4.87696e+06
4.87492e+06
4.87286e+06
4.87079e+06
4.8687e+06
4.86659e+06
4.86446e+06
4.86232e+06
4.86015e+06
4.85797e+06
4.85578e+06
4.85356e+06
4.85133e+06
4.84908e+06
4.84682e+06
4.84453e+06
4.84223e+06
4.83991e+06
4.83758e+06
4.83522e+06
4.83285e+06
4.83046e+06
4.82805e+06
4.82563e+06
4.82318e+06
4.82072e+06
4.81824e+06
4.81575e+06
4.81323e+06
4.8107e+06
4.80815e+06
4.80558e+06
4.80299e+06
4.80039e+06
4.79777e+06
4.79513e+06
4.79247e+06
4.78979e+06
4.7871e+06
4.78438e+06
4.78165e+06
4.7789e+06
4.77614e+06
4.77335e+06
4.77055e+06
4.76772e+06
4.76488e+06
4.76202e+06
4.75915e+06
4.75625e+06
4.75333e+06
4.7504e+06
4.74745e+06
4.74448e+06
4.74149e+06
4.73848e+06
4.73545e+06
4.73241e+06
4.72934e+06
4.72626e+06
4.72316e+06
4.72004e+06
4.7169e+06
4.71374e+06
4.71056e+06
4.70736e+06
4.70414e+06
4.70091e+06
4.69765e+06
4.69438e+06
4.69108e+06
4.68777e+06
4.68444e+06
4.68109e+06
4.67771e+06
4.67432e+06
4.67091e+06
4.66748e+06
4.66403e+06
4.66056e+06
4.65707e+06
4.65356e+06
4.65003e+06
4.64648e+06
4.64291e+06
4.63932e+06
4.63571e+06
4.63208e+06
4.62843e+06
4.62476e+06
4.62107e+06
4.61736e+06
4.61363e+06
4.60987e+06
4.6061e+06
4.60231e+06
4.59849e+06
4.59465e+06
4.5908e+06
4.58692e+06
4.58302e+06
4.5791e+06
4.57516e+06
4.5712e+06
4.56722e+06
4.56321e+06
4.55918e+06
4.55514e+06
4.55107e+06
4.54698e+06
4.54286e+06
4.53873e+06
4.53457e+06
4.53039e+06
4.52619e+06
4.52197e+06
4.51772e+06
4.51346e+06
4.50916e+06
4.50485e+06
4.50052e+06
4.49616e+06
4.49178e+06
4.48737e+06
4.48295e+06
4.4785e+06
4.47402e+06
4.46953e+06
4.46501e+06
4.46046e+06
4.4559e+06
4.4513e+06
4.44669e+06
4.44205e+06
4.43739e+06
4.4327e+06
4.42799e+06
4.42325e+06
4.41849e+06
4.41371e+06
4.4089e+06
4.40406e+06
4.3992e+06
4.39431e+06
4.3894e+06
4.38447e+06
4.3795e+06
4.37452e+06
4.3695e+06
4.36446e+06
4.3594e+06
4.3543e+06
4.34918e+06
4.34404e+06
4.33886e+06
4.33366e+06
4.32843e+06
4.32318e+06
4.3179e+06
4.31259e+06
4.30725e+06
4.30188e+06
4.29648e+06
4.29106e+06
4.28561e+06
4.28012e+06
4.27461e+06
4.26907e+06
4.2635e+06
4.2579e+06
4.25227e+06
4.24661e+06
4.24091e+06
4.23519e+06
4.22943e+06
4.22365e+06
4.21783e+06
4.21198e+06
4.2061e+06
4.20018e+06
4.19423e+06
4.18825e+06
4.18223e+06
4.17618e+06
4.1701e+06
4.16398e+06
4.15782e+06
4.15163e+06
4.14541e+06
4.13914e+06
4.13284e+06
4.12651e+06
4.12013e+06
4.11372e+06
4.10727e+06
4.10078e+06
4.09425e+06
4.08768e+06
4.08107e+06
4.07441e+06
4.06772e+06
4.06098e+06
4.0542e+06
4.04737e+06
4.0405e+06
4.03359e+06
4.02663e+06
4.01962e+06
4.01256e+06
4.00546e+06
3.9983e+06
3.99109e+06
3.98384e+06
3.97652e+06
3.96916e+06
3.96174e+06
3.95426e+06
3.94672e+06
3.93913e+06
3.93147e+06
3.92375e+06
3.91597e+06
3.90812e+06
3.90021e+06
3.89222e+06
3.88417e+06
3.87604e+06
3.86784e+06
3.85957e+06
3.85123e+06
3.84282e+06
3.83434e+06
3.82581e+06
3.81723e+06
3.80863e+06
3.80001e+06
3.79144e+06
3.78296e+06
3.77457e+06
3.76625e+06
3.75797e+06
3.7497e+06
3.74141e+06
3.73309e+06
3.72471e+06
3.71628e+06
3.70779e+06
3.69926e+06
3.69067e+06
3.68204e+06
3.67337e+06
3.66467e+06
3.65593e+06
3.64717e+06
3.63838e+06
3.62955e+06
3.6207e+06
3.61182e+06
3.6029e+06
3.59395e+06
3.58498e+06
3.57597e+06
3.56693e+06
3.55786e+06
3.54875e+06
3.53962e+06
3.53047e+06
3.52128e+06
3.51206e+06
3.50282e+06
3.49355e+06
3.48426e+06
3.47494e+06
3.46559e+06
3.45622e+06
3.44682e+06
3.4374e+06
3.42796e+06
3.4185e+06
3.40902e+06
3.39951e+06
3.38999e+06
3.38045e+06
3.37089e+06
3.36131e+06
3.35172e+06
3.34211e+06
3.33249e+06
3.32286e+06
3.31321e+06
3.30355e+06
3.29388e+06
3.2842e+06
3.27452e+06
3.26483e+06
3.25513e+06
3.24543e+06
3.23574e+06
3.22604e+06
3.21636e+06
3.20669e+06
3.19703e+06
3.1874e+06
3.17779e+06
3.16822e+06
3.15869e+06
3.14921e+06
3.13978e+06
3.13042e+06
3.12112e+06
3.11191e+06
3.10278e+06
3.09374e+06
3.08478e+06
3.07589e+06
3.06707e+06
3.05836e+06
3.04982e+06
3.04151e+06
3.03344e+06
3.02567e+06
3.01821e+06
3.01111e+06
3.00438e+06
2.99808e+06
2.99226e+06
2.98704e+06
2.98249e+06
2.97874e+06
2.9758e+06
2.97368e+06
2.97212e+06
2.97071e+06
2.96843e+06
2.9632e+06
)
;

boundaryField
{
    sideLeft
    {
        type            symmetryPlane;
    }
    sideRight
    {
        type            calculated;
        value           uniform 2.95715e+06;
    }
    topbottom
    {
        type            empty;
    }
    frontback
    {
        type            empty;
    }
}


// ************************************************************************* //
