/*--------------------------------*- C++ -*----------------------------------*\
| =========                 |                                                 |
| \\      /  F ield         | OpenFOAM: The Open Source CFD Toolbox           |
|  \\    /   O peration     | Version:  2.4.0                                 |
|   \\  /    A nd           | Web:      www.OpenFOAM.org                      |
|    \\/     M anipulation  |                                                 |
\*---------------------------------------------------------------------------*/
FoamFile
{
    version     2.0;
    format      ascii;
    class       volScalarField;
    location    "0.15";
    object      T.air;
}
// * * * * * * * * * * * * * * * * * * * * * * * * * * * * * * * * * * * * * //

dimensions      [0 0 0 1 0 0 0];

internalField   nonuniform List<scalar> 
1000
(
300
300
300
300
300
300
300
300
300
300
300
300
300
300
300
300
300
300
300
300
300
300
300
300
300
300
300
300
300
300
300
300
300
300
300
300
300
300
300
300
300
300
300
300
300
300
300
300
300
300
300
300
300
300
300
300
300
300
300
300
300
300
300
300
300
300
300
300
300
300
300
300
300
300
300
300
300
300
300
300
300
300
300
300
300
300
300
300
300
300
300
300
300
300
300
300
300
300
300
300
300
300
300
300
300
300
300
300
300
300
300
300
300
300
300
300
300
300
300
300
300
300
300
300
300
300
300
300
300
300
300
300
300
300
300
300
300
300
300
300
300
300
300
300
300
300
300
300
300
300
300
300
300
300
300
300
300
300
300
300
300
300
300
300
300
300
300
300
300
300
300
300
300
300
300
300
300
300
300
300
300
300
300
300
300
300
300
300
300
300
300
300
300
300
300
300
300
300
300
300
300
300
300
300
300
300
300
300
300
300
300
300
300
300
300
300
300
300
300
300
300
300
300
300
300
300
300
300
300
300
300
300
300
300
300
300
300
300
300
300
300
300
300
300
300
300
300
300
300
300
300
300
300
300
300
300
300
300
300
300
300
300
300
300
300
300
300
300
300
300
300
300
300
300
300
300
300
300
300
300
300
300
300
300
300
300
300
300
300
300
300
300
300
300
300
300
300
300
300
300
300
300
300
300
300
300
300
300
300
300
300
300
300
300
300
300
300
300
300
300
300
300
300
300
300
300
300
300
300
300
300
300
300
300
300
300
300
300
300
300
300
300
300
300
300
300
300
300
300
300
300
300
300
300
300
300
300
300
300
300
300
300
300
300
300
300
300
300
300
300
300
300
300
300
300
300
300
300
300
300
300
300
300
300
300
300
300
300
300
300
300
300
300
300
300
300
300
300
300
300
300
300
300
300
300
300
300
300
300
300
300
300
300
300
300
300
300
300
300
300
300
300
300
300
300
300
300
300
300
300
300
300
300
300
300
300
300
300
300
300
300
300
300
300
300
300
300
300
300
300
300
300
300
300
300
300
300
300
300
300
300
300
300
300
300
300
300
300
300
300
300
300
300
300
300
300
300
300
300
300
300
300
300
300
300
300
300
300
300
300
300
300
300
300
300
300
300
300
300
300
300
300
300
300
300
300
300
299.999
299.999
299.999
299.999
299.999
299.998
299.998
299.997
299.997
299.996
299.995
299.994
299.993
299.991
299.989
299.987
299.985
299.982
299.979
299.975
299.971
299.966
299.96
299.954
299.947
299.939
299.931
299.921
299.91
299.898
299.886
299.872
299.856
299.84
299.822
299.803
299.783
299.761
299.738
299.713
299.687
299.66
299.631
299.602
299.57
299.538
299.504
299.469
299.433
299.396
299.358
299.318
299.278
299.237
299.194
299.151
299.107
299.063
299.018
298.972
298.925
298.878
298.83
298.782
298.733
298.684
298.634
298.584
298.534
298.483
298.433
298.381
298.33
298.279
298.227
298.175
298.123
298.07
298.018
297.965
297.912
297.86
297.807
297.753
297.7
297.647
297.594
297.54
297.486
297.433
297.379
297.325
297.271
297.217
297.163
297.109
297.055
297.001
296.946
296.892
296.837
296.783
296.728
296.673
296.618
296.563
296.508
296.453
296.398
296.343
296.288
296.232
296.177
296.121
296.065
296.01
295.954
295.898
295.842
295.786
295.729
295.673
295.617
295.56
295.503
295.447
295.39
295.333
295.276
295.219
295.162
295.105
295.047
294.99
294.932
294.875
294.817
294.759
294.701
294.643
294.585
294.527
294.469
294.41
294.352
294.293
294.234
294.175
294.117
294.058
293.998
293.939
293.88
293.821
293.761
293.701
293.642
293.582
293.522
293.462
293.402
293.342
293.281
293.221
293.16
293.1
293.039
292.978
292.917
292.856
292.795
292.734
292.673
292.611
292.55
292.488
292.426
292.364
292.302
292.24
292.178
292.116
292.053
291.991
291.928
291.865
291.803
291.74
291.676
291.613
291.55
291.486
291.423
291.359
291.295
291.231
291.167
291.103
291.039
290.974
290.91
290.845
290.78
290.715
290.65
290.585
290.519
290.454
290.388
290.322
290.256
290.19
290.124
290.058
289.991
289.925
289.858
289.791
289.724
289.657
289.59
289.522
289.455
289.387
289.319
289.251
289.183
289.114
289.046
288.977
288.908
288.839
288.77
288.701
288.631
288.562
288.492
288.422
288.352
288.282
288.211
288.141
288.07
287.999
287.928
287.856
287.785
287.713
287.641
287.569
287.497
287.424
287.352
287.279
287.206
287.132
287.059
286.985
286.911
286.837
286.763
286.689
286.614
286.539
286.464
286.389
286.313
286.237
286.162
286.085
286.009
285.931
285.857
285.775
285.704
285.618
285.551
285.459
285.397
285.298
285.243
285.138
285.085
284.979
284.925
284.818
284.764
284.656
284.602
284.493
284.439
284.33
284.274
284.164
284.109
283.998
283.942
283.83
283.773
283.661
283.603
283.491
283.43
283.322
283.254
283.154
283.075
282.983
282.896
282.807
282.72
282.626
282.544
282.443
282.365
282.26
282.184
282.075
282.001
281.888
281.817
281.699
281.629
281.508
281.44
281.316
281.248
281.122
281.053
280.925
280.856
280.726
280.657
280.524
280.455
280.319
280.25
280.112
280.042
279.902
279.832
279.689
279.618
279.473
279.4
279.254
279.179
279.031
278.955
278.803
278.726
278.572
278.494
278.337
278.257
278.096
278.015
277.851
277.768
277.601
277.515
277.345
277.257
277.082
276.993
276.813
276.721
276.537
276.442
276.253
276.155
275.96
275.859
275.658
275.554
275.345
275.237
275.02
274.908
274.682
274.565
274.33
274.208
273.962
273.834
273.576
273.442
273.173
273.033
272.752
272.607
272.317
272.17
271.848
271.29
270.936
270.385
270.037
269.492
269.146
268.601
268.247
267.694
267.324
266.76
266.369
265.793
265.38
264.794
264.36
263.764
263.312
262.709
262.241
261.629
261.146
260.526
260.028
259.4
258.886
258.25
257.719
257.077
256.527
255.88
255.311
254.66
254.072
253.417
252.811
252.153
251.532
250.867
250.233
249.562
248.916
248.239
247.581
246.899
246.229
245.541
244.861
244.166
243.478
242.777
242.079
241.374
240.664
239.958
239.237
238.529
237.798
237.088
236.351
235.636
234.895
234.176
233.433
232.71
231.967
231.242
230.498
229.778
229.028
228.32
227.564
226.869
226.112
225.432
224.672
224.014
223.246
222.615
221.859
221.244
220.507
219.913
219.225
218.594
217.944
217.316
216.706
216.025
215.465
214.816
214.457
214.034
213.979
214.068
214.389
214.736
215.505
216.667
)
;

boundaryField
{
    sideLeft
    {
        type            symmetryPlane;
    }
    sideRight
    {
        type            zeroGradient;
    }
    topbottom
    {
        type            empty;
    }
    frontback
    {
        type            empty;
    }
}


// ************************************************************************* //
