/*--------------------------------*- C++ -*----------------------------------*\
| =========                 |                                                 |
| \\      /  F ield         | OpenFOAM: The Open Source CFD Toolbox           |
|  \\    /   O peration     | Version:  2.4.0                                 |
|   \\  /    A nd           | Web:      www.OpenFOAM.org                      |
|    \\/     M anipulation  |                                                 |
\*---------------------------------------------------------------------------*/
FoamFile
{
    version     2.0;
    format      ascii;
    class       volScalarField;
    location    "0.15";
    object      T.water;
}
// * * * * * * * * * * * * * * * * * * * * * * * * * * * * * * * * * * * * * //

dimensions      [0 0 0 1 0 0 0];

internalField   nonuniform List<scalar> 
1000
(
300
300
300
300
300
300
300
300
300
300
300
300
300
300
300
300
300
300
300
300
300
300
300
300
300
300
300
300
300
300
300
300
300
300
300
300
300
300
300
300
300
300
300
300
300
300
300
300
300
300
300
300
300
300
300
300
300
300
300
300
300
300
300
300
300
300
300
300
300
300
300
300
300
300
300
300
300
300
300
300
300
300
300
300
300
300
300
300
300
300
300
300
300
300
300
300
300
300
300
300
300
300
300
300
300
300
300
300
300
300
300
300
300
300
300
300
300
300
300
300
300
300
300
300
300
300
300
300
300
300
300
300
300
300
300
300
300
300
300
300
300
300
300
300
300
300
300
300
300
300
300
300
300
300
300
300
300
300
300
300
300
300
300
300
300
300
300
300
300
300
300
300
300
300
300
300
300
300
300
300
300
300
300
300
300
300
300
300
300
300
300
300
300
300
300
300
300
300
300
300
300
300
300
300
300
300
300
300
300
300
300
300
300
300
300
300
300
300
300
300
300
300
300
300
300
300
300
300
300
300
300
300
300
300
300
300
300
300
300
300
300
300
300
300
300
300
300
300
300
300
300
300
300
300
300
300
300
300
300
300
300
300
300
300
300
300
300
300
300
300
300
300
300
300
300
300
300
300
300
300
300
300
300
300
300
300
300
300
300
300
300
300
300
300
300
300
300
300
300
300
300
300
300
300
300
300
300
300
300
300
300
300
300
300
300
300
300
300
300
300
300
300
300
300
300
300
300
300
300
300
300
300
300
300
300
300
300
300
300
300
300
300
300
300
300
300
300
300
300
300
300
300
300
300
300
300
300
300
300
300
300
300
300
300
300
300
300
300
300
300
300
300
300
300
300
300
300
300
300
300
300
300
300
300
300
300
300
300
300
300
300
300
300
300
300
300
300
300
300
300
300
300
300
300
300
300
300
300
300
300
300
300
300
300
300
300
300
300
300
300
300
300
300
300
300
300
300
300
300
300
300
300
300
300
300
300
300
300
300
300
300
300
300
300
300
300
300
300
300
300
300
300
300
300
300
300
300
300
300
300
300
300
300
300
300
300
300
300
300
300
300
300
300
300
300
300
300
300
300
300
300
300
300
300
300
300
300
300
300
300
300
300
300
300
300
300
300
300
300
300
300
300
300
300
300
300
300
299.999
299.999
299.999
299.999
299.999
299.998
299.998
299.997
299.996
299.996
299.995
299.994
299.992
299.991
299.989
299.987
299.984
299.981
299.978
299.974
299.969
299.964
299.959
299.952
299.945
299.937
299.928
299.918
299.907
299.895
299.882
299.867
299.852
299.835
299.817
299.797
299.776
299.754
299.731
299.706
299.68
299.652
299.623
299.593
299.561
299.529
299.495
299.459
299.423
299.385
299.347
299.307
299.267
299.225
299.183
299.14
299.096
299.051
299.006
298.959
298.913
298.865
298.818
298.769
298.721
298.671
298.622
298.572
298.522
298.471
298.42
298.369
298.318
298.266
298.215
298.163
298.11
298.058
298.006
297.953
297.901
297.848
297.795
297.742
297.689
297.635
297.582
297.529
297.475
297.421
297.368
297.314
297.26
297.206
297.152
297.098
297.044
296.99
296.935
296.881
296.827
296.772
296.717
296.663
296.608
296.553
296.498
296.443
296.388
296.333
296.277
296.222
296.167
296.111
296.055
296
295.944
295.888
295.832
295.776
295.72
295.663
295.607
295.551
295.494
295.437
295.381
295.324
295.267
295.21
295.153
295.096
295.038
294.981
294.923
294.866
294.808
294.75
294.692
294.634
294.576
294.518
294.46
294.402
294.343
294.284
294.226
294.167
294.108
294.049
293.99
293.931
293.872
293.812
293.753
293.693
293.634
293.574
293.514
293.454
293.394
293.334
293.274
293.213
293.153
293.092
293.031
292.971
292.91
292.849
292.788
292.727
292.665
292.604
292.542
292.481
292.419
292.357
292.295
292.233
292.171
292.109
292.046
291.984
291.921
291.858
291.796
291.733
291.67
291.606
291.543
291.48
291.416
291.352
291.288
291.225
291.16
291.096
291.032
290.968
290.903
290.838
290.773
290.709
290.643
290.578
290.513
290.447
290.382
290.316
290.25
290.184
290.118
290.052
289.985
289.919
289.852
289.785
289.718
289.651
289.584
289.516
289.449
289.381
289.313
289.245
289.177
289.109
289.04
288.972
288.903
288.834
288.765
288.695
288.626
288.556
288.487
288.417
288.347
288.276
288.206
288.135
288.064
287.993
287.922
287.851
287.78
287.708
287.636
287.564
287.492
287.419
287.347
287.274
287.201
287.128
287.054
286.98
286.907
286.833
286.758
286.684
286.609
286.534
286.459
286.384
286.309
286.232
286.157
286.08
286.005
285.926
285.852
285.771
285.699
285.613
285.546
285.454
285.393
285.294
285.238
285.134
285.081
284.974
284.921
284.814
284.76
284.652
284.598
284.489
284.435
284.326
284.27
284.16
284.105
283.994
283.938
283.826
283.769
283.657
283.6
283.487
283.427
283.318
283.25
283.15
283.071
282.979
282.893
282.803
282.717
282.623
282.541
282.44
282.362
282.256
282.181
282.071
281.998
281.884
281.813
281.695
281.626
281.505
281.436
281.313
281.244
281.118
281.05
280.922
280.853
280.723
280.654
280.521
280.452
280.316
280.247
280.109
280.039
279.9
279.829
279.687
279.615
279.47
279.397
279.251
279.177
279.028
278.952
278.801
278.724
278.57
278.491
278.334
278.254
278.094
278.012
277.849
277.765
277.598
277.513
277.342
277.255
277.08
276.99
276.811
276.719
276.535
276.44
276.25
276.153
275.958
275.857
275.655
275.551
275.343
275.235
275.018
274.906
274.68
274.563
274.328
274.206
273.96
273.832
273.574
273.44
273.171
273.031
272.75
272.605
272.315
272.168
271.846
271.288
270.934
270.383
270.035
269.491
269.144
268.599
268.245
267.693
267.322
266.759
266.367
265.792
265.379
264.792
264.358
263.763
263.311
262.707
262.239
261.627
261.144
260.525
260.026
259.398
258.884
258.249
257.717
257.075
256.525
255.878
255.309
254.658
254.07
253.415
252.809
252.151
251.53
250.865
250.231
249.56
248.914
248.237
247.579
246.896
246.227
245.538
244.859
244.164
243.475
242.774
242.076
241.371
240.662
239.955
239.234
238.526
237.795
237.085
236.347
235.633
234.891
234.172
233.429
232.706
231.963
231.238
230.494
229.773
229.024
228.315
227.559
226.864
226.106
225.426
224.666
224.008
223.239
222.609
221.852
221.237
220.504
219.907
219.221
218.592
217.939
217.312
216.7
216.015
215.449
214.802
214.443
214.015
213.958
214.045
214.365
214.714
215.479
216.659
)
;

boundaryField
{
    sideLeft
    {
        type            symmetryPlane;
    }
    sideRight
    {
        type            zeroGradient;
    }
    topbottom
    {
        type            empty;
    }
    frontback
    {
        type            empty;
    }
}


// ************************************************************************* //
