/*--------------------------------*- C++ -*----------------------------------*\
| =========                 |                                                 |
| \\      /  F ield         | OpenFOAM: The Open Source CFD Toolbox           |
|  \\    /   O peration     | Version:  2.4.0                                 |
|   \\  /    A nd           | Web:      www.OpenFOAM.org                      |
|    \\/     M anipulation  |                                                 |
\*---------------------------------------------------------------------------*/
FoamFile
{
    version     2.0;
    format      ascii;
    class       volVectorField;
    location    "0.15";
    object      U;
}
// * * * * * * * * * * * * * * * * * * * * * * * * * * * * * * * * * * * * * //

dimensions      [0 1 -1 0 0 0 0];

internalField   nonuniform List<vector> 
1000
(
(-1.13685e-13 0 0)
(-1.06582e-13 0 0)
(-3.69482e-13 0 0)
(-6.46595e-13 0 0)
(-8.88178e-13 0 0)
(-7.67387e-13 0 0)
(-6.82121e-13 0 0)
(-5.68434e-13 0 0)
(-6.46594e-13 0 0)
(-3.97904e-13 0 0)
(-1.06581e-13 0 0)
(-2.55795e-13 0 0)
(-2.55796e-13 0 0)
(-1.63424e-13 0 0)
(-2.13171e-14 0 0)
(4.97388e-14 0 0)
(1.20792e-13 0 0)
(1.84742e-13 0 0)
(4.05008e-13 0 0)
(2.77113e-13 0 0)
(6.75015e-13 0 0)
(7.24754e-13 0 0)
(5.96855e-13 0 0)
(3.69482e-13 0 0)
(3.55271e-13 0 0)
(6.18172e-13 0 0)
(8.52652e-13 0 0)
(4.83168e-13 0 0)
(2.91323e-13 0 0)
(2.06057e-13 0 0)
(1.49214e-13 0 0)
(1.27898e-13 0 0)
(-1.84741e-13 0 0)
(-2.13162e-13 0 0)
(3.55262e-14 0 0)
(-6.39473e-14 0 0)
(-9.94776e-14 0 0)
(-2.629e-13 0 0)
(5.68425e-14 0 0)
(3.55279e-14 0 0)
(-1.70531e-13 0 0)
(4.2633e-14 0 0)
(-4.26328e-14 0 0)
(1.42112e-14 0 0)
(-3.55272e-13 0 0)
(-3.62377e-13 0 0)
(-4.76064e-13 0 0)
(-7.03437e-13 0 0)
(-7.17648e-13 0 0)
(-6.25278e-13 0 0)
(-6.75015e-13 0 0)
(-5.68434e-13 0 0)
(-3.83693e-13 0 0)
(-2.41585e-13 0 0)
(-2.20268e-13 0 0)
(-6.46594e-13 0 0)
(-5.32907e-13 0 0)
(-5.18697e-13 0 0)
(-4.68958e-13 0 0)
(-5.96856e-13 0 0)
(-6.18171e-13 0 0)
(-6.18173e-13 0 0)
(-5.82645e-13 0 0)
(-3.4106e-13 0 0)
(-7.81601e-14 0 0)
(-1.84741e-13 0 0)
(-7.10547e-14 0 0)
(-1.13687e-13 0 0)
(-2.91322e-13 0 0)
(-1.77636e-13 0 0)
(-4.47642e-13 0 0)
(-5.82645e-13 0 0)
(-7.24753e-13 0 0)
(-6.32383e-13 0 0)
(-6.53699e-13 0 0)
(-6.96331e-13 0 0)
(-6.03962e-13 0 0)
(-5.61328e-13 0 0)
(-5.11591e-13 0 0)
(-5.61329e-13 0 0)
(-8.10018e-13 0 0)
(-9.80549e-13 0 0)
(-1.06581e-12 0 0)
(-1.21503e-12 0 0)
(-1.16529e-12 0 0)
(-9.16601e-13 0 0)
(-8.17124e-13 0 0)
(-4.76064e-13 0 0)
(-3.76588e-13 0 0)
(-2.98428e-13 0 0)
(-3.62377e-13 0 0)
(-4.33431e-13 0 0)
(-5.7554e-13 0 0)
(-6.96332e-13 0 0)
(-2.91322e-13 0 0)
(-7.0989e-19 0 0)
(1.56321e-13 0 0)
(1.20791e-13 0 0)
(7.1055e-14 0 0)
(2.77111e-13 0 0)
(1.77636e-13 0 0)
(1.42108e-13 0 0)
(6.39491e-14 0 0)
(-1.35004e-13 0 0)
(-4.40536e-13 0 0)
(-1.98952e-13 0 0)
(-2.62901e-13 0 0)
(-1.42109e-13 0 0)
(-7.10539e-14 0 0)
(-2.06058e-13 0 0)
(-1.91846e-13 0 0)
(7.81591e-14 0 0)
(-7.10507e-15 0 0)
(-1.77636e-13 0 0)
(1.06582e-13 0 0)
(3.19744e-13 0 0)
(3.83693e-13 0 0)
(1.49214e-13 0 0)
(1.20792e-13 0 0)
(7.10614e-15 0 0)
(1.20792e-13 0 0)
(2.48691e-13 0 0)
(5.18695e-13 0 0)
(5.7554e-13 0 0)
(4.54747e-13 0 0)
(1.49215e-13 0 0)
(2.70006e-13 0 0)
(2.55796e-13 0 0)
(2.41584e-13 0 0)
(-1.27897e-13 0 0)
(-3.33956e-13 0 0)
(-1.77635e-13 0 0)
(-1.27898e-13 0 0)
(-1.63424e-13 0 0)
(-1.70531e-13 0 0)
(-1.77635e-13 0 0)
(2.13163e-13 0 0)
(3.97904e-13 0 0)
(5.54223e-13 0 0)
(7.67386e-13 0 0)
(7.17648e-13 0 0)
(9.66338e-13 0 0)
(1.15108e-12 0 0)
(1.12976e-12 0 0)
(1.05871e-12 0 0)
(1.25766e-12 0 0)
(1.33582e-12 0 0)
(1.26477e-12 0 0)
(9.9476e-13 0 0)
(8.17124e-13 0 0)
(5.61329e-13 0 0)
(6.39489e-13 0 0)
(5.18696e-13 0 0)
(5.7554e-13 0 0)
(3.69482e-13 0 0)
(1.42108e-13 0 0)
(-4.97375e-14 0 0)
(-1.06582e-13 0 0)
(3.90666e-19 0 0)
(4.05009e-13 0 0)
(2.13164e-13 0 0)
(2.06057e-13 0 0)
(1.77636e-13 0 0)
(8.52646e-14 0 0)
(7.10598e-15 0 0)
(-8.39861e-19 0 0)
(9.84097e-19 0 0)
(1.20791e-13 0 0)
(1.27898e-13 0 0)
(2.84217e-13 0 0)
(3.33955e-13 0 0)
(1.42108e-13 0 0)
(3.76588e-13 0 0)
(4.76063e-13 0 0)
(5.25802e-13 0 0)
(7.17647e-13 0 0)
(6.18173e-13 0 0)
(8.73967e-13 0 0)
(1.0516e-12 0 0)
(1.20792e-12 0 0)
(1.18661e-12 0 0)
(1.25766e-12 0 0)
(1.15108e-12 0 0)
(1.11555e-12 0 0)
(1.29319e-12 0 0)
(1.15819e-12 0 0)
(1.26476e-12 0 0)
(9.52129e-13 0 0)
(9.16599e-13 0 0)
(9.6634e-13 0 0)
(1.08713e-12 0 0)
(1.03739e-12 0 0)
(1.16529e-12 0 0)
(1.06582e-12 0 0)
(1.1795e-12 0 0)
(9.9476e-13 0 0)
(1.20792e-12 0 0)
(1.03029e-12 0 0)
(1.00186e-12 0 0)
(1.08003e-12 0 0)
(1.56319e-12 0 0)
(1.47793e-12 0 0)
(1.45661e-12 0 0)
(1.05871e-12 0 0)
(1.12266e-12 0 0)
(1.08003e-12 0 0)
(9.23705e-13 0 0)
(9.66338e-13 0 0)
(1.10134e-12 0 0)
(1.11555e-12 0 0)
(9.30811e-13 0 0)
(9.59232e-13 0 0)
(9.37917e-13 0 0)
(1.19371e-12 0 0)
(9.30812e-13 0 0)
(9.23705e-13 0 0)
(7.31859e-13 0 0)
(6.6791e-13 0 0)
(5.54223e-13 0 0)
(3.55272e-13 0 0)
(2.91322e-13 0 0)
(1.91847e-13 0 0)
(4.76063e-13 0 0)
(3.48166e-13 0 0)
(1.84742e-13 0 0)
(9.94757e-14 0 0)
(3.55268e-14 0 0)
(2.84222e-14 0 0)
(1.63424e-13 0 0)
(1.77636e-13 0 0)
(-6.39486e-14 0 0)
(3.97903e-13 0 0)
(5.32908e-13 0 0)
(6.25277e-13 0 0)
(5.04487e-13 0 0)
(7.10542e-13 0 0)
(4.19221e-13 0 0)
(3.05532e-13 0 0)
(2.84218e-13 0 0)
(2.62901e-13 0 0)
(4.33431e-13 0 0)
(5.54223e-13 0 0)
(4.47643e-13 0 0)
(6.46593e-13 0 0)
(8.10019e-13 0 0)
(6.75016e-13 0 0)
(8.81073e-13 0 0)
(8.45546e-13 0 0)
(7.31859e-13 0 0)
(7.67386e-13 0 0)
(7.17648e-13 0 0)
(4.54747e-13 0 0)
(4.68958e-13 0 0)
(7.38965e-13 0 0)
(8.52651e-13 0 0)
(7.03438e-13 0 0)
(8.81072e-13 0 0)
(9.8055e-13 0 0)
(1.01608e-12 0 0)
(8.38442e-13 0 0)
(8.10018e-13 0 0)
(6.82122e-13 0 0)
(5.18696e-13 0 0)
(4.83169e-13 0 0)
(4.26326e-13 0 0)
(4.40536e-13 0 0)
(2.77113e-13 0 0)
(-2.84232e-14 0 0)
(-4.19219e-13 0 0)
(-3.55286e-14 0 0)
(-1.35002e-13 0 0)
(-2.13174e-14 0 0)
(7.10607e-15 0 0)
(-3.55274e-14 0 0)
(-1.49214e-13 0 0)
(-1.49215e-13 0 0)
(-2.06056e-13 0 0)
(-1.49215e-13 0 0)
(-1.13686e-13 0 0)
(5.6843e-14 0 0)
(-7.10531e-15 0 0)
(-1.84741e-13 0 0)
(-1.13687e-13 0 0)
(7.10663e-15 0 0)
(1.13686e-13 0 0)
(3.97904e-13 0 0)
(3.69482e-13 0 0)
(3.69482e-13 0 0)
(2.77111e-13 0 0)
(2.62901e-13 0 0)
(3.19744e-13 0 0)
(2.98428e-13 0 0)
(4.26325e-13 0 0)
(4.47643e-13 0 0)
(5.89749e-13 0 0)
(3.19745e-13 0 0)
(1.13687e-13 0 0)
(-3.05533e-13 0 0)
(-4.19221e-13 0 0)
(-3.55271e-13 0 0)
(-2.41585e-13 0 0)
(-2.06057e-13 0 0)
(8.52649e-14 0 0)
(2.13162e-14 0 0)
(-4.97375e-14 0 0)
(-3.97904e-13 0 0)
(-3.90798e-13 0 0)
(-2.4869e-13 0 0)
(-1.91847e-13 0 0)
(-2.27373e-13 0 0)
(2.84212e-14 0 0)
(-1.42108e-13 0 0)
(7.1054e-14 0 0)
(1.27898e-13 0 0)
(4.26322e-14 0 0)
(-1.42106e-14 0 0)
(1.42108e-13 0 0)
(1.35003e-13 0 0)
(1.42112e-14 0 0)
(4.61852e-13 0 0)
(6.03961e-13 0 0)
(4.9738e-13 0 0)
(4.12115e-13 0 0)
(3.76588e-13 0 0)
(2.70006e-13 0 0)
(3.97904e-13 0 0)
(4.12115e-13 0 0)
(5.47118e-13 0 0)
(8.10019e-13 0 0)
(8.59757e-13 0 0)
(7.95808e-13 0 0)
(8.10018e-13 0 0)
(6.89227e-13 0 0)
(7.88701e-13 0 0)
(7.17649e-13 0 0)
(7.74491e-13 0 0)
(6.32384e-13 0 0)
(5.68434e-13 0 0)
(5.61329e-13 0 0)
(6.89227e-13 0 0)
(6.46594e-13 0 0)
(3.19744e-13 0 0)
(3.12638e-13 0 0)
(2.98429e-13 0 0)
(4.19219e-13 0 0)
(2.77113e-13 0 0)
(5.75539e-13 0 0)
(5.18697e-13 0 0)
(5.40012e-13 0 0)
(5.40013e-13 0 0)
(1.77635e-13 0 0)
(8.52653e-14 0 0)
(9.23701e-14 0 0)
(-1.06581e-13 0 0)
(6.3948e-14 0 0)
(2.13167e-14 0 0)
(3.2685e-13 0 0)
(5.54223e-13 0 0)
(5.68434e-13 0 0)
(2.34479e-13 0 0)
(7.10545e-15 0 0)
(1.42108e-13 0 0)
(3.12639e-13 0 0)
(5.40012e-13 0 0)
(3.69482e-13 0 0)
(2.8421e-14 0 0)
(-8.52642e-14 0 0)
(4.26318e-14 0 0)
(1.20793e-13 0 0)
(2.84217e-13 0 0)
(3.55272e-13 0 0)
(4.12114e-13 0 0)
(1.5632e-13 0 0)
(2.13162e-13 0 0)
(3.41061e-13 0 0)
(1.91846e-13 0 0)
(7.81603e-14 0 0)
(-1.35004e-13 0 0)
(-4.26325e-13 0 0)
(-5.40014e-13 0 0)
(-3.97903e-13 0 0)
(-1.63425e-13 0 0)
(-2.84215e-14 0 0)
(3.48166e-13 0 0)
(4.40536e-13 0 0)
(5.89752e-13 0 0)
(7.67385e-13 0 0)
(8.66863e-13 0 0)
(9.37916e-13 0 0)
(7.3186e-13 0 0)
(5.54223e-13 0 0)
(7.38965e-13 0 0)
(5.18696e-13 0 0)
(1.20793e-13 0 0)
(7.10426e-15 0 0)
(-4.54746e-13 0 0)
(-7.17649e-13 0 0)
(-7.95807e-13 0 0)
(-8.66863e-13 0 0)
(-1.10845e-12 0 0)
(-9.80549e-13 0 0)
(-7.81597e-13 0 0)
(-7.46069e-13 0 0)
(-2.55796e-13 0 0)
(-2.1316e-14 0 0)
(2.84216e-14 0 0)
(9.9476e-14 0 0)
(2.70006e-13 0 0)
(2.3448e-13 0 0)
(-4.26332e-14 0 0)
(-2.70005e-13 0 0)
(-4.9739e-14 0 0)
(-2.91322e-13 0 0)
(-4.19221e-13 0 0)
(-4.83169e-13 0 0)
(-7.24754e-13 0 0)
(-8.3844e-13 0 0)
(-8.1002e-13 0 0)
(-7.38963e-13 0 0)
(-6.03963e-13 0 0)
(-8.24229e-13 0 0)
(-6.03962e-13 0 0)
(-7.24753e-13 0 0)
(-6.67911e-13 0 0)
(-7.88702e-13 0 0)
(-8.95284e-13 0 0)
(-1.02318e-12 0 0)
(-1.0516e-12 0 0)
(-8.88179e-13 0 0)
(-9.66337e-13 0 0)
(-9.8055e-13 0 0)
(-1.0445e-12 0 0)
(-8.45546e-13 0 0)
(-6.32383e-13 0 0)
(-3.48166e-13 0 0)
(-2.34479e-13 0 0)
(-1.98952e-13 0 0)
(-2.629e-13 0 0)
(-2.27374e-13 0 0)
(-4.97372e-14 0 0)
(1.06581e-13 0 0)
(3.12639e-13 0 0)
(7.4607e-13 0 0)
(1.32871e-12 0 0)
(2.12452e-12 0 0)
(2.91323e-12 0 0)
(3.90799e-12 0 0)
(5.61329e-12 0 0)
(7.87992e-12 0 0)
(1.12408e-11 0 0)
(1.62999e-11 0 0)
(2.39169e-11 0 0)
(3.5449e-11 0 0)
(5.29354e-11 0 0)
(7.96874e-11 0 0)
(1.20657e-10 0 0)
(1.83029e-10 0 0)
(2.76849e-10 0 0)
(4.18197e-10 0 0)
(6.29612e-10 0 0)
(9.45114e-10 0 0)
(1.41396e-09 0 0)
(2.10954e-09 0 0)
(3.13708e-09 0 0)
(4.65086e-09 0 0)
(6.8726e-09 0 0)
(1.01232e-08 0 0)
(1.48632e-08 0 0)
(2.17522e-08 0 0)
(3.17309e-08 0 0)
(4.61364e-08 0 0)
(6.68626e-08 0 0)
(9.65812e-08 0 0)
(1.39048e-07 0 0)
(1.99523e-07 0 0)
(2.85343e-07 0 0)
(4.06706e-07 0 0)
(5.77733e-07 0 0)
(8.17894e-07 0 0)
(1.15394e-06 0 0)
(1.62247e-06 0 0)
(2.27338e-06 0 0)
(3.17437e-06 0 0)
(4.417e-06 0 0)
(6.12453e-06 0 0)
(8.46223e-06 0 0)
(1.16508e-05 0 0)
(1.59837e-05 0 0)
(2.18494e-05 0 0)
(2.97602e-05 0 0)
(4.03884e-05 0 0)
(5.46127e-05 0 0)
(7.35763e-05 0 0)
(9.87599e-05 0 0)
(0.000132073 0 0)
(0.000175965 0 0)
(0.000233568 0 0)
(0.00030886 0 0)
(0.000406878 0 0)
(0.000533966 0 0)
(0.00069807 0 0)
(0.0009091 0 0)
(0.00117935 0 0)
(0.001524 0 0)
(0.00196168 0 0)
(0.00251514 0 0)
(0.00321204 0 0)
(0.00408577 0 0)
(0.00517647 0 0)
(0.0065321 0 0)
(0.0082096 0 0)
(0.0102762 0 0)
(0.0128109 0 0)
(0.0159058 0 0)
(0.0196677 0 0)
(0.0242195 0 0)
(0.0297021 0 0)
(0.0362755 0 0)
(0.0441206 0 0)
(0.0534399 0 0)
(0.0644592 0 0)
(0.0774279 0 0)
(0.0926195 0 0)
(0.110332 0 0)
(0.130887 0 0)
(0.154629 0 0)
(0.181924 0 0)
(0.213157 0 0)
(0.248731 0 0)
(0.289061 0 0)
(0.334572 0 0)
(0.385697 0 0)
(0.442867 0 0)
(0.506512 0 0)
(0.57705 0 0)
(0.654887 0 0)
(0.740409 0 0)
(0.833977 0 0)
(0.935924 0 0)
(1.04655 0 0)
(1.16611 0 0)
(1.29483 0 0)
(1.43289 0 0)
(1.58041 0 0)
(1.73748 0 0)
(1.90414 0 0)
(2.08038 0 0)
(2.26615 0 0)
(2.46135 0 0)
(2.66584 0 0)
(2.87943 0 0)
(3.10192 0 0)
(3.33306 0 0)
(3.57257 0 0)
(3.82015 0 0)
(4.07547 0 0)
(4.33821 0 0)
(4.60799 0 0)
(4.88447 0 0)
(5.16726 0 0)
(5.45601 0 0)
(5.75033 0 0)
(6.04985 0 0)
(6.35422 0 0)
(6.66306 0 0)
(6.97605 0 0)
(7.29283 0 0)
(7.6131 0 0)
(7.93652 0 0)
(8.26282 0 0)
(8.59171 0 0)
(8.92293 0 0)
(9.25622 0 0)
(9.59136 0 0)
(9.92812 0 0)
(10.2663 0 0)
(10.6058 0 0)
(10.9463 0 0)
(11.2877 0 0)
(11.6299 0 0)
(11.9728 0 0)
(12.3161 0 0)
(12.6599 0 0)
(13.0041 0 0)
(13.3485 0 0)
(13.6931 0 0)
(14.0377 0 0)
(14.3825 0 0)
(14.7272 0 0)
(15.072 0 0)
(15.4166 0 0)
(15.7612 0 0)
(16.1056 0 0)
(16.45 0 0)
(16.7941 0 0)
(17.1381 0 0)
(17.4819 0 0)
(17.8255 0 0)
(18.169 0 0)
(18.5123 0 0)
(18.8553 0 0)
(19.1982 0 0)
(19.5409 0 0)
(19.8835 0 0)
(20.2258 0 0)
(20.568 0 0)
(20.9101 0 0)
(21.252 0 0)
(21.5937 0 0)
(21.9353 0 0)
(22.2768 0 0)
(22.6182 0 0)
(22.9595 0 0)
(23.3006 0 0)
(23.6417 0 0)
(23.9827 0 0)
(24.3236 0 0)
(24.6645 0 0)
(25.0053 0 0)
(25.3461 0 0)
(25.6868 0 0)
(26.0275 0 0)
(26.3682 0 0)
(26.7088 0 0)
(27.0495 0 0)
(27.3902 0 0)
(27.7309 0 0)
(28.0716 0 0)
(28.4123 0 0)
(28.753 0 0)
(29.0939 0 0)
(29.4347 0 0)
(29.7756 0 0)
(30.1166 0 0)
(30.4576 0 0)
(30.7987 0 0)
(31.1399 0 0)
(31.4812 0 0)
(31.8226 0 0)
(32.164 0 0)
(32.5056 0 0)
(32.8472 0 0)
(33.189 0 0)
(33.5309 0 0)
(33.8729 0 0)
(34.215 0 0)
(34.5572 0 0)
(34.8996 0 0)
(35.2421 0 0)
(35.5847 0 0)
(35.9275 0 0)
(36.2704 0 0)
(36.6135 0 0)
(36.9567 0 0)
(37.3 0 0)
(37.6436 0 0)
(37.9872 0 0)
(38.331 0 0)
(38.675 0 0)
(39.0192 0 0)
(39.3635 0 0)
(39.708 0 0)
(40.0526 0 0)
(40.3974 0 0)
(40.7425 0 0)
(41.0876 0 0)
(41.433 0 0)
(41.7786 0 0)
(42.1244 0 0)
(42.4703 0 0)
(42.8165 0 0)
(43.1628 0 0)
(43.5094 0 0)
(43.8562 0 0)
(44.2032 0 0)
(44.5505 0 0)
(44.8979 0 0)
(45.2456 0 0)
(45.5936 0 0)
(45.9417 0 0)
(46.2902 0 0)
(46.6388 0 0)
(46.9878 0 0)
(47.337 0 0)
(47.6865 0 0)
(48.0362 0 0)
(48.3863 0 0)
(48.7366 0 0)
(49.0872 0 0)
(49.4381 0 0)
(49.7893 0 0)
(50.1409 0 0)
(50.4927 0 0)
(50.8449 0 0)
(51.1974 0 0)
(51.5502 0 0)
(51.9034 0 0)
(52.2569 0 0)
(52.6108 0 0)
(52.965 0 0)
(53.3196 0 0)
(53.6746 0 0)
(54.0299 0 0)
(54.3856 0 0)
(54.7417 0 0)
(55.0982 0 0)
(55.4551 0 0)
(55.8124 0 0)
(56.1701 0 0)
(56.5282 0 0)
(56.8867 0 0)
(57.2456 0 0)
(57.605 0 0)
(57.9648 0 0)
(58.3251 0 0)
(58.6858 0 0)
(59.0469 0 0)
(59.4085 0 0)
(59.7706 0 0)
(60.1331 0 0)
(60.4961 0 0)
(60.8596 0 0)
(61.2235 0 0)
(61.588 0 0)
(61.9529 0 0)
(62.3184 0 0)
(62.6844 0 0)
(63.0509 0 0)
(63.4179 0 0)
(63.7854 0 0)
(64.1535 0 0)
(64.5221 0 0)
(64.8913 0 0)
(65.261 0 0)
(65.6313 0 0)
(66.0022 0 0)
(66.3736 0 0)
(66.7456 0 0)
(67.1183 0 0)
(67.4915 0 0)
(67.8654 0 0)
(68.2398 0 0)
(68.6149 0 0)
(68.9906 0 0)
(69.367 0 0)
(69.744 0 0)
(70.1217 0 0)
(70.5001 0 0)
(70.8791 0 0)
(71.2589 0 0)
(71.6393 0 0)
(72.0204 0 0)
(72.4023 0 0)
(72.7849 0 0)
(73.1682 0 0)
(73.5522 0 0)
(73.937 0 0)
(74.3226 0 0)
(74.709 0 0)
(75.0961 0 0)
(75.4841 0 0)
(75.8728 0 0)
(76.2624 0 0)
(76.6528 0 0)
(77.044 0 0)
(77.4361 0 0)
(77.829 0 0)
(78.2228 0 0)
(78.6175 0 0)
(79.0131 0 0)
(79.4097 0 0)
(79.8069 0 0)
(80.2055 0 0)
(80.6045 0 0)
(81.0052 0 0)
(81.4057 0 0)
(81.809 0 0)
(82.2106 0 0)
(82.6171 0 0)
(83.0193 0 0)
(83.4297 0 0)
(83.8316 0 0)
(84.2471 0 0)
(84.6478 0 0)
(85.0694 0 0)
(85.468 0 0)
(85.8965 0 0)
(86.2925 0 0)
(86.7281 0 0)
(87.1222 0 0)
(87.5634 0 0)
(87.9579 0 0)
(88.4028 0 0)
(88.7998 0 0)
(89.2457 0 0)
(89.6483 0 0)
(90.0927 0 0)
(90.5035 0 0)
(90.9436 0 0)
(91.3658 0 0)
(91.7984 0 0)
(92.2362 0 0)
(92.6559 0 0)
(93.1159 0 0)
(93.5157 0 0)
(94.0056 0 0)
(94.3781 0 0)
(94.9043 0 0)
(95.2457 0 0)
(95.8087 0 0)
(96.1225 0 0)
(96.714 0 0)
(97.0138 0 0)
(97.6168 0 0)
(97.9196 0 0)
(98.5257 0 0)
(98.8316 0 0)
(99.4438 0 0)
(99.7515 0 0)
(100.368 0 0)
(100.679 0 0)
(101.302 0 0)
(101.615 0 0)
(102.243 0 0)
(102.56 0 0)
(103.194 0 0)
(103.513 0 0)
(104.153 0 0)
(104.476 0 0)
(105.122 0 0)
(105.448 0 0)
(106.101 0 0)
(106.431 0 0)
(107.091 0 0)
(107.424 0 0)
(108.091 0 0)
(108.428 0 0)
(109.102 0 0)
(109.443 0 0)
(110.126 0 0)
(110.471 0 0)
(111.162 0 0)
(111.512 0 0)
(112.211 0 0)
(112.569 0 0)
(113.267 0 0)
(113.647 0 0)
(114.331 0 0)
(114.743 0 0)
(115.41 0 0)
(115.853 0 0)
(116.508 0 0)
(116.976 0 0)
(117.625 0 0)
(118.117 0 0)
(118.759 0 0)
(119.277 0 0)
(119.913 0 0)
(120.455 0 0)
(121.089 0 0)
(121.652 0 0)
(122.288 0 0)
(122.871 0 0)
(123.512 0 0)
(124.112 0 0)
(124.763 0 0)
(125.376 0 0)
(126.041 0 0)
(126.668 0 0)
(127.348 0 0)
(127.99 0 0)
(128.686 0 0)
(129.344 0 0)
(130.057 0 0)
(130.734 0 0)
(131.464 0 0)
(132.163 0 0)
(132.911 0 0)
(133.633 0 0)
(134.403 0 0)
(135.149 0 0)
(135.944 0 0)
(136.716 0 0)
(137.539 0 0)
(138.339 0 0)
(139.195 0 0)
(140.026 0 0)
(140.916 0 0)
(141.783 0 0)
(142.71 0 0)
(143.616 0 0)
(144.582 0 0)
(145.529 0 0)
(146.535 0 0)
(147.522 0 0)
(148.565 0 0)
(149.585 0 0)
(150.656 0 0)
(151.694 0 0)
(152.766 0 0)
(153.783 0 0)
(154.807 0 0)
(155.712 0 0)
(156.595 0 0)
(157.355 0 0)
(158.111 0 0)
(158.768 0 0)
(159.455 0 0)
(160.07 0 0)
(160.745 0 0)
(161.363 0 0)
(162.057 0 0)
(162.701 0 0)
(163.417 0 0)
(164.089 0 0)
(164.819 0 0)
(165.508 0 0)
(166.237 0 0)
(166.93 0 0)
(167.649 0 0)
(168.335 0 0)
(169.042 0 0)
(169.719 0 0)
(170.417 0 0)
(171.085 0 0)
(171.775 0 0)
(172.438 0 0)
(173.124 0 0)
(173.784 0 0)
(174.466 0 0)
(175.125 0 0)
(175.802 0 0)
(176.46 0 0)
(177.128 0 0)
(177.786 0 0)
(178.442 0 0)
(179.098 0 0)
(179.742 0 0)
(180.393 0 0)
(181.025 0 0)
(181.668 0 0)
(182.292 0 0)
(182.923 0 0)
(183.54 0 0)
(184.157 0 0)
(184.769 0 0)
(185.371 0 0)
(185.977 0 0)
(186.568 0 0)
(187.166 0 0)
(187.744 0 0)
(188.332 0 0)
(188.901 0 0)
(189.477 0 0)
(190.042 0 0)
(190.602 0 0)
(191.161 0 0)
(191.703 0 0)
(192.253 0 0)
(192.781 0 0)
(193.317 0 0)
(193.833 0 0)
(194.348 0 0)
(194.853 0 0)
(195.341 0 0)
(195.831 0 0)
(196.29 0 0)
(196.756 0 0)
(197.189 0 0)
(197.618 0 0)
(198.023 0 0)
(198.404 0 0)
(198.779 0 0)
(199.11 0 0)
(199.445 0 0)
(199.716 0 0)
(200.004 0 0)
(200.226 0 0)
(200.454 0 0)
(200.616 0 0)
(200.747 0 0)
(200.842 0 0)
(200.85 0 0)
(200.891 0 0)
(200.91 0 0)
(200.896 0 0)
(200.897 0 0)
(200.9 0 0)
(200.915 0 0)
(200.893 0 0)
(200.709 0 0)
(200.217 0 0)
(199.027 0 0)
(197.609 0 0)
(194.445 0 0)
(191.685 0 0)
(186.126 0 0)
(181.205 0 0)
(174.752 0 0)
(171.759 0 0)
)
;

boundaryField
{
    sideLeft
    {
        type            symmetryPlane;
    }
    sideRight
    {
        type            calculated;
        value           uniform (171.04 0 0);
    }
    topbottom
    {
        type            empty;
    }
    frontback
    {
        type            empty;
    }
}


// ************************************************************************* //
