/*--------------------------------*- C++ -*----------------------------------*\
| =========                 |                                                 |
| \\      /  F ield         | OpenFOAM: The Open Source CFD Toolbox           |
|  \\    /   O peration     | Version:  2.4.0                                 |
|   \\  /    A nd           | Web:      www.OpenFOAM.org                      |
|    \\/     M anipulation  |                                                 |
\*---------------------------------------------------------------------------*/
FoamFile
{
    version     2.0;
    format      ascii;
    class       volVectorField;
    location    "0.15";
    object      U.airMean;
}
// * * * * * * * * * * * * * * * * * * * * * * * * * * * * * * * * * * * * * //

dimensions      [0 1 -1 0 0 0 0];

internalField   nonuniform List<vector> 
1000
(
(-6.73634e-14 0 0)
(-3.69911e-14 0 0)
(-7.45973e-14 0 0)
(-4.21402e-14 0 0)
(-1.00319e-13 0 0)
(-3.79197e-14 0 0)
(-8.32564e-14 0 0)
(-7.13433e-14 0 0)
(-7.29727e-14 0 0)
(-6.71369e-14 0 0)
(-7.58812e-14 0 0)
(-1.10039e-13 0 0)
(-6.67677e-14 0 0)
(-1.26254e-13 0 0)
(-5.94018e-14 0 0)
(-1.0795e-13 0 0)
(-4.51956e-14 0 0)
(-8.25033e-14 0 0)
(-2.71195e-14 0 0)
(-1.05799e-13 0 0)
(-2.67312e-14 0 0)
(-1.02147e-13 0 0)
(-6.59765e-14 0 0)
(-1.05577e-13 0 0)
(-1.10916e-13 0 0)
(-1.06529e-13 0 0)
(-1.20859e-13 0 0)
(-9.7501e-14 0 0)
(-1.5072e-13 0 0)
(-8.42425e-14 0 0)
(-1.23596e-13 0 0)
(-1.16861e-13 0 0)
(-1.00532e-13 0 0)
(-1.22014e-13 0 0)
(-7.05337e-14 0 0)
(-1.50791e-13 0 0)
(-2.94552e-14 0 0)
(-1.20346e-13 0 0)
(-5.11738e-14 0 0)
(-1.12597e-13 0 0)
(-6.76915e-14 0 0)
(-1.01119e-13 0 0)
(-8.08126e-14 0 0)
(-9.51888e-14 0 0)
(-6.8255e-14 0 0)
(-7.52607e-14 0 0)
(-8.34082e-14 0 0)
(-7.07322e-14 0 0)
(-8.19634e-14 0 0)
(-7.29397e-14 0 0)
(-8.10253e-14 0 0)
(-5.43757e-14 0 0)
(-6.17033e-14 0 0)
(-3.84737e-14 0 0)
(-3.97144e-14 0 0)
(-1.29747e-14 0 0)
(-2.21879e-14 0 0)
(-1.43152e-14 0 0)
(-4.50198e-14 0 0)
(-1.23637e-14 0 0)
(-5.71888e-14 0 0)
(2.43901e-14 0 0)
(-2.38172e-14 0 0)
(-2.50394e-14 0 0)
(9.73905e-15 0 0)
(-6.49896e-15 0 0)
(2.31209e-14 0 0)
(9.96651e-15 0 0)
(-3.27309e-15 0 0)
(7.90099e-15 0 0)
(-2.22634e-14 0 0)
(-1.1691e-14 0 0)
(-4.6635e-14 0 0)
(-1.32021e-14 0 0)
(-2.34243e-14 0 0)
(-4.78809e-14 0 0)
(-1.44955e-14 0 0)
(-5.0652e-14 0 0)
(-4.82458e-14 0 0)
(-3.48214e-14 0 0)
(-4.84969e-14 0 0)
(-1.84553e-14 0 0)
(-3.64791e-14 0 0)
(3.85086e-15 0 0)
(-5.9979e-14 0 0)
(-1.10895e-14 0 0)
(-5.96711e-14 0 0)
(-2.13545e-14 0 0)
(-4.96337e-14 0 0)
(-5.27884e-14 0 0)
(-2.83887e-14 0 0)
(-3.86298e-14 0 0)
(-4.3703e-14 0 0)
(-3.86679e-14 0 0)
(-5.90128e-14 0 0)
(-3.19891e-14 0 0)
(-9.87743e-14 0 0)
(-1.47135e-14 0 0)
(-8.6089e-14 0 0)
(-6.40343e-14 0 0)
(-8.85335e-14 0 0)
(-5.2495e-14 0 0)
(-8.2096e-14 0 0)
(-6.186e-14 0 0)
(-8.30388e-14 0 0)
(-8.24275e-14 0 0)
(-5.48684e-14 0 0)
(-7.56018e-14 0 0)
(-1.00527e-13 0 0)
(-7.53746e-14 0 0)
(-1.19627e-13 0 0)
(-6.81887e-14 0 0)
(-1.01257e-13 0 0)
(-8.46542e-14 0 0)
(-9.59563e-14 0 0)
(-7.97228e-14 0 0)
(-5.4167e-14 0 0)
(-3.71378e-14 0 0)
(-1.26525e-14 0 0)
(-4.9373e-14 0 0)
(1.2008e-14 0 0)
(-1.91892e-14 0 0)
(3.93638e-14 0 0)
(-6.57466e-15 0 0)
(3.63512e-14 0 0)
(-1.7626e-14 0 0)
(2.61808e-14 0 0)
(-1.66974e-14 0 0)
(3.9122e-14 0 0)
(-3.70045e-14 0 0)
(3.79234e-14 0 0)
(-4.78285e-14 0 0)
(1.91351e-15 0 0)
(-2.15482e-14 0 0)
(2.35329e-14 0 0)
(-6.56518e-15 0 0)
(1.62477e-14 0 0)
(2.72991e-14 0 0)
(4.22677e-14 0 0)
(5.05386e-14 0 0)
(3.08613e-14 0 0)
(5.18078e-14 0 0)
(4.94575e-15 0 0)
(4.92687e-14 0 0)
(-1.04825e-14 0 0)
(4.91408e-14 0 0)
(1.74936e-14 0 0)
(2.22637e-14 0 0)
(3.11833e-14 0 0)
(1.78678e-14 0 0)
(8.74912e-15 0 0)
(-3.28262e-15 0 0)
(-1.3216e-15 0 0)
(1.54188e-14 0 0)
(2.49637e-14 0 0)
(4.8549e-14 0 0)
(6.39024e-15 0 0)
(3.07569e-14 0 0)
(-7.5601e-15 0 0)
(1.91182e-14 0 0)
(-2.76255e-14 0 0)
(5.28356e-14 0 0)
(5.35306e-15 0 0)
(4.4745e-14 0 0)
(1.75223e-14 0 0)
(6.47775e-14 0 0)
(-5.12029e-15 0 0)
(6.24563e-14 0 0)
(-2.84003e-16 0 0)
(1.28893e-14 0 0)
(6.03016e-15 0 0)
(1.19843e-14 0 0)
(-8.47894e-15 0 0)
(2.00181e-14 0 0)
(-2.89282e-14 0 0)
(1.13778e-14 0 0)
(-5.28877e-14 0 0)
(8.18507e-15 0 0)
(-6.1059e-14 0 0)
(-5.86576e-14 0 0)
(-5.50718e-14 0 0)
(-5.74971e-14 0 0)
(-4.11549e-14 0 0)
(-1.01029e-13 0 0)
(-2.57506e-14 0 0)
(-1.111e-13 0 0)
(-2.82708e-14 0 0)
(-1.3882e-13 0 0)
(-9.30418e-15 0 0)
(-1.05558e-13 0 0)
(-1.17388e-14 0 0)
(-1.08002e-13 0 0)
(-1.9853e-14 0 0)
(-1.01318e-13 0 0)
(-5.6853e-14 0 0)
(-1.04469e-13 0 0)
(-7.59523e-14 0 0)
(-8.90121e-14 0 0)
(-6.19263e-14 0 0)
(-9.94285e-14 0 0)
(-5.81322e-14 0 0)
(-1.30952e-13 0 0)
(-3.69155e-14 0 0)
(-1.00092e-13 0 0)
(-7.16891e-14 0 0)
(-7.36548e-14 0 0)
(-3.395e-14 0 0)
(-4.8999e-14 0 0)
(-5.85675e-14 0 0)
(-3.08566e-14 0 0)
(-2.6219e-14 0 0)
(-5.48555e-15 0 0)
(-3.40868e-14 0 0)
(2.66687e-14 0 0)
(-1.61859e-14 0 0)
(4.17796e-14 0 0)
(9.6825e-15 0 0)
(1.91941e-14 0 0)
(2.03548e-14 0 0)
(1.67924e-14 0 0)
(3.04206e-14 0 0)
(5.70344e-15 0 0)
(3.44138e-14 0 0)
(1.81851e-14 0 0)
(4.69932e-15 0 0)
(3.63559e-14 0 0)
(4.09887e-14 0 0)
(1.22311e-14 0 0)
(4.11212e-14 0 0)
(1.52626e-14 0 0)
(-6.58907e-15 0 0)
(9.65858e-15 0 0)
(-3.61237e-14 0 0)
(2.71519e-14 0 0)
(-3.87526e-14 0 0)
(5.21866e-14 0 0)
(-2.43239e-14 0 0)
(3.45888e-14 0 0)
(-3.3869e-14 0 0)
(-1.77493e-14 0 0)
(-1.47461e-14 0 0)
(5.22934e-15 0 0)
(-4.18741e-14 0 0)
(4.01357e-14 0 0)
(1.53029e-15 0 0)
(1.65792e-14 0 0)
(2.67118e-14 0 0)
(3.86155e-14 0 0)
(2.87676e-14 0 0)
(4.5593e-14 0 0)
(3.57594e-14 0 0)
(6.42945e-14 0 0)
(6.14193e-14 0 0)
(2.94831e-14 0 0)
(7.85004e-14 0 0)
(1.9583e-14 0 0)
(8.08878e-14 0 0)
(3.0331e-14 0 0)
(8.37868e-14 0 0)
(2.50685e-14 0 0)
(1.06794e-13 0 0)
(5.73222e-14 0 0)
(7.914e-14 0 0)
(6.76721e-14 0 0)
(3.59252e-14 0 0)
(7.29345e-14 0 0)
(-7.24127e-16 0 0)
(1.12014e-13 0 0)
(1.96399e-14 0 0)
(1.32336e-13 0 0)
(5.15195e-14 0 0)
(1.31298e-13 0 0)
(6.51476e-14 0 0)
(9.31094e-14 0 0)
(7.67957e-14 0 0)
(1.18352e-13 0 0)
(5.91082e-14 0 0)
(1.3956e-13 0 0)
(7.47021e-14 0 0)
(1.28096e-13 0 0)
(1.21039e-13 0 0)
(1.33416e-13 0 0)
(1.37215e-13 0 0)
(6.67159e-14 0 0)
(1.50265e-13 0 0)
(9.85099e-14 0 0)
(1.12057e-13 0 0)
(1.18002e-13 0 0)
(1.34525e-13 0 0)
(9.96798e-14 0 0)
(1.3461e-13 0 0)
(1.24985e-13 0 0)
(1.51014e-13 0 0)
(9.42042e-14 0 0)
(1.74139e-13 0 0)
(1.22796e-13 0 0)
(1.3938e-13 0 0)
(1.4739e-13 0 0)
(1.61961e-13 0 0)
(1.12261e-13 0 0)
(1.76783e-13 0 0)
(1.29073e-13 0 0)
(1.4955e-13 0 0)
(1.3947e-13 0 0)
(1.15895e-13 0 0)
(1.52894e-13 0 0)
(1.3281e-13 0 0)
(1.23014e-13 0 0)
(1.11318e-13 0 0)
(8.33611e-14 0 0)
(1.28215e-13 0 0)
(9.04097e-14 0 0)
(1.20337e-13 0 0)
(1.08841e-13 0 0)
(1.47963e-13 0 0)
(1.3687e-13 0 0)
(1.63193e-13 0 0)
(1.2848e-13 0 0)
(1.31015e-13 0 0)
(1.68432e-13 0 0)
(1.60346e-13 0 0)
(1.5208e-13 0 0)
(1.72951e-13 0 0)
(1.49446e-13 0 0)
(1.80369e-13 0 0)
(1.38182e-13 0 0)
(1.24009e-13 0 0)
(1.35387e-13 0 0)
(1.12029e-13 0 0)
(1.23976e-13 0 0)
(1.43989e-13 0 0)
(1.5325e-13 0 0)
(1.08728e-13 0 0)
(1.79317e-13 0 0)
(9.44932e-14 0 0)
(1.63837e-13 0 0)
(9.46871e-14 0 0)
(1.03124e-13 0 0)
(1.10721e-13 0 0)
(1.01243e-13 0 0)
(1.16515e-13 0 0)
(9.21717e-14 0 0)
(1.00916e-13 0 0)
(5.63701e-14 0 0)
(1.01759e-13 0 0)
(3.25103e-14 0 0)
(1.24624e-13 0 0)
(6.38972e-14 0 0)
(1.0002e-13 0 0)
(7.45882e-14 0 0)
(9.11673e-14 0 0)
(8.33562e-14 0 0)
(1.08296e-13 0 0)
(6.37076e-14 0 0)
(1.3695e-13 0 0)
(9.06842e-14 0 0)
(1.02077e-13 0 0)
(1.08163e-13 0 0)
(1.26562e-13 0 0)
(1.20863e-13 0 0)
(1.11475e-13 0 0)
(1.02716e-13 0 0)
(8.67149e-14 0 0)
(1.0723e-13 0 0)
(1.0741e-13 0 0)
(1.38916e-13 0 0)
(7.43942e-14 0 0)
(1.31431e-13 0 0)
(8.8046e-14 0 0)
(1.10234e-13 0 0)
(1.01456e-13 0 0)
(1.28466e-13 0 0)
(1.03337e-13 0 0)
(1.28167e-13 0 0)
(1.06658e-13 0 0)
(1.59043e-13 0 0)
(1.26993e-13 0 0)
(1.87578e-13 0 0)
(1.16454e-13 0 0)
(1.9367e-13 0 0)
(1.25255e-13 0 0)
(1.60317e-13 0 0)
(1.22427e-13 0 0)
(1.15624e-13 0 0)
(1.19281e-13 0 0)
(6.11832e-14 0 0)
(1.47764e-13 0 0)
(8.15282e-14 0 0)
(1.33567e-13 0 0)
(7.1751e-14 0 0)
(9.88979e-14 0 0)
(8.88274e-14 0 0)
(1.13886e-13 0 0)
(4.81942e-14 0 0)
(1.27504e-13 0 0)
(5.27274e-14 0 0)
(1.08694e-13 0 0)
(7.93632e-14 0 0)
(1.41019e-13 0 0)
(9.96608e-14 0 0)
(1.2074e-13 0 0)
(1.31616e-13 0 0)
(9.21814e-14 0 0)
(1.50696e-13 0 0)
(1.20077e-13 0 0)
(1.34956e-13 0 0)
(1.35069e-13 0 0)
(1.49962e-13 0 0)
(9.97795e-14 0 0)
(1.38139e-13 0 0)
(8.10685e-14 0 0)
(1.57877e-13 0 0)
(9.81452e-14 0 0)
(1.30195e-13 0 0)
(9.59281e-14 0 0)
(1.26927e-13 0 0)
(9.10443e-14 0 0)
(1.39408e-13 0 0)
(5.41773e-14 0 0)
(1.72216e-13 0 0)
(9.03909e-14 0 0)
(1.33345e-13 0 0)
(1.07183e-13 0 0)
(1.40744e-13 0 0)
(1.23833e-13 0 0)
(1.09547e-13 0 0)
(1.39053e-13 0 0)
(9.93056e-14 0 0)
(1.23847e-13 0 0)
(8.13101e-14 0 0)
(1.38593e-13 0 0)
(1.04995e-13 0 0)
(1.02873e-13 0 0)
(1.29806e-13 0 0)
(1.3605e-13 0 0)
(1.04962e-13 0 0)
(1.16917e-13 0 0)
(7.2651e-14 0 0)
(9.02007e-14 0 0)
(3.84314e-14 0 0)
(1.00276e-13 0 0)
(4.52146e-14 0 0)
(7.70844e-14 0 0)
(8.30861e-14 0 0)
(9.29627e-14 0 0)
(1.04615e-13 0 0)
(9.09639e-14 0 0)
(1.32705e-13 0 0)
(1.21403e-13 0 0)
(1.37964e-13 0 0)
(1.73406e-13 0 0)
(1.9116e-13 0 0)
(3.08797e-13 0 0)
(3.76881e-13 0 0)
(5.18152e-13 0 0)
(7.47614e-13 0 0)
(1.07185e-12 0 0)
(1.51782e-12 0 0)
(2.29936e-12 0 0)
(3.3253e-12 0 0)
(5.11639e-12 0 0)
(7.53496e-12 0 0)
(1.13554e-11 0 0)
(1.68636e-11 0 0)
(2.52564e-11 0 0)
(3.74925e-11 0 0)
(5.57099e-11 0 0)
(8.2391e-11 0 0)
(1.2161e-10 0 0)
(1.78845e-10 0 0)
(2.62238e-10 0 0)
(3.83322e-10 0 0)
(5.58527e-10 0 0)
(8.11201e-10 0 0)
(1.17441e-09 0 0)
(1.69478e-09 0 0)
(2.43779e-09 0 0)
(3.49523e-09 0 0)
(4.99489e-09 0 0)
(7.11472e-09 0 0)
(1.01006e-08 0 0)
(1.42923e-08 0 0)
(2.01559e-08 0 0)
(2.83303e-08 0 0)
(3.9686e-08 0 0)
(5.54057e-08 0 0)
(7.70897e-08 0 0)
(1.06895e-07 0 0)
(1.47716e-07 0 0)
(2.03423e-07 0 0)
(2.79172e-07 0 0)
(3.81798e-07 0 0)
(5.2033e-07 0 0)
(7.06644e-07 0 0)
(9.56296e-07 0 0)
(1.28958e-06 0 0)
(1.73284e-06 0 0)
(2.32016e-06 0 0)
(3.09544e-06 0 0)
(4.11493e-06 0 0)
(5.45045e-06 0 0)
(7.19327e-06 0 0)
(9.45882e-06 0 0)
(1.23925e-05 0 0)
(1.61765e-05 0 0)
(2.10383e-05 0 0)
(2.72601e-05 0 0)
(3.51911e-05 0 0)
(4.52605e-05 0 0)
(5.79938e-05 0 0)
(7.40314e-05 0 0)
(9.4149e-05 0 0)
(0.000119283 0 0)
(0.000150556 0 0)
(0.000189309 0 0)
(0.000237135 0 0)
(0.000295915 0 0)
(0.00036786 0 0)
(0.000455557 0 0)
(0.000562012 0 0)
(0.0006907 0 0)
(0.000845621 0 0)
(0.00103135 0 0)
(0.00125308 0 0)
(0.00151671 0 0)
(0.00182885 0 0)
(0.00219689 0 0)
(0.00262908 0 0)
(0.0031345 0 0)
(0.00372317 0 0)
(0.00440602 0 0)
(0.00519492 0 0)
(0.00610273 0 0)
(0.00714324 0 0)
(0.0083312 0 0)
(0.00968228 0 0)
(0.011213 0 0)
(0.0129408 0 0)
(0.0148838 0 0)
(0.017061 0 0)
(0.0194918 0 0)
(0.0221964 0 0)
(0.0251952 0 0)
(0.0285092 0 0)
(0.0321597 0 0)
(0.0361679 0 0)
(0.0405553 0 0)
(0.0453432 0 0)
(0.050553 0 0)
(0.0562057 0 0)
(0.0623219 0 0)
(0.0689221 0 0)
(0.076026 0 0)
(0.0836531 0 0)
(0.0918219 0 0)
(0.100551 0 0)
(0.109857 0 0)
(0.119756 0 0)
(0.130266 0 0)
(0.141401 0 0)
(0.153174 0 0)
(0.1656 0 0)
(0.178692 0 0)
(0.192461 0 0)
(0.206919 0 0)
(0.222075 0 0)
(0.237941 0 0)
(0.254523 0 0)
(0.271832 0 0)
(0.289874 0 0)
(0.308656 0 0)
(0.328185 0 0)
(0.348467 0 0)
(0.369507 0 0)
(0.391309 0 0)
(0.413879 0 0)
(0.43722 0 0)
(0.461336 0 0)
(0.486229 0 0)
(0.511903 0 0)
(0.538361 0 0)
(0.565604 0 0)
(0.593635 0 0)
(0.622455 0 0)
(0.652067 0 0)
(0.682471 0 0)
(0.713669 0 0)
(0.745663 0 0)
(0.778453 0 0)
(0.81204 0 0)
(0.846426 0 0)
(0.881611 0 0)
(0.917595 0 0)
(0.954381 0 0)
(0.991967 0 0)
(1.03036 0 0)
(1.06955 0 0)
(1.10954 0 0)
(1.15034 0 0)
(1.19195 0 0)
(1.23435 0 0)
(1.27757 0 0)
(1.32159 0 0)
(1.36642 0 0)
(1.41206 0 0)
(1.4585 0 0)
(1.50576 0 0)
(1.55382 0 0)
(1.6027 0 0)
(1.65239 0 0)
(1.70289 0 0)
(1.7542 0 0)
(1.80633 0 0)
(1.85928 0 0)
(1.91304 0 0)
(1.96761 0 0)
(2.02301 0 0)
(2.07922 0 0)
(2.13626 0 0)
(2.19412 0 0)
(2.2528 0 0)
(2.3123 0 0)
(2.37263 0 0)
(2.43378 0 0)
(2.49576 0 0)
(2.55857 0 0)
(2.62221 0 0)
(2.68668 0 0)
(2.75198 0 0)
(2.81811 0 0)
(2.88508 0 0)
(2.95289 0 0)
(3.02153 0 0)
(3.09101 0 0)
(3.16134 0 0)
(3.2325 0 0)
(3.30451 0 0)
(3.37737 0 0)
(3.45107 0 0)
(3.52562 0 0)
(3.60101 0 0)
(3.67726 0 0)
(3.75437 0 0)
(3.83232 0 0)
(3.91114 0 0)
(3.99081 0 0)
(4.07134 0 0)
(4.15273 0 0)
(4.23499 0 0)
(4.31811 0 0)
(4.4021 0 0)
(4.48695 0 0)
(4.57268 0 0)
(4.65928 0 0)
(4.74675 0 0)
(4.83509 0 0)
(4.92432 0 0)
(5.01442 0 0)
(5.10541 0 0)
(5.19728 0 0)
(5.29003 0 0)
(5.38367 0 0)
(5.4782 0 0)
(5.57362 0 0)
(5.66994 0 0)
(5.76715 0 0)
(5.86525 0 0)
(5.96426 0 0)
(6.06417 0 0)
(6.16498 0 0)
(6.26669 0 0)
(6.36932 0 0)
(6.47285 0 0)
(6.5773 0 0)
(6.68266 0 0)
(6.78894 0 0)
(6.89613 0 0)
(7.00425 0 0)
(7.11329 0 0)
(7.22325 0 0)
(7.33415 0 0)
(7.44597 0 0)
(7.55873 0 0)
(7.67242 0 0)
(7.78706 0 0)
(7.90263 0 0)
(8.01914 0 0)
(8.1366 0 0)
(8.25501 0 0)
(8.37437 0 0)
(8.49468 0 0)
(8.61595 0 0)
(8.73818 0 0)
(8.86137 0 0)
(8.98552 0 0)
(9.11064 0 0)
(9.23673 0 0)
(9.36379 0 0)
(9.49183 0 0)
(9.62085 0 0)
(9.75085 0 0)
(9.88183 0 0)
(10.0138 0 0)
(10.1468 0 0)
(10.2807 0 0)
(10.4157 0 0)
(10.5516 0 0)
(10.6886 0 0)
(10.8265 0 0)
(10.9655 0 0)
(11.1055 0 0)
(11.2465 0 0)
(11.3885 0 0)
(11.5316 0 0)
(11.6757 0 0)
(11.8208 0 0)
(11.9669 0 0)
(12.1141 0 0)
(12.2623 0 0)
(12.4115 0 0)
(12.5618 0 0)
(12.7132 0 0)
(12.8656 0 0)
(13.0191 0 0)
(13.1736 0 0)
(13.3292 0 0)
(13.4859 0 0)
(13.6437 0 0)
(13.8025 0 0)
(13.9624 0 0)
(14.1234 0 0)
(14.2855 0 0)
(14.4487 0 0)
(14.6129 0 0)
(14.7783 0 0)
(14.9448 0 0)
(15.1124 0 0)
(15.2812 0 0)
(15.451 0 0)
(15.622 0 0)
(15.7941 0 0)
(15.9673 0 0)
(16.1417 0 0)
(16.3172 0 0)
(16.4939 0 0)
(16.6717 0 0)
(16.8507 0 0)
(17.0308 0 0)
(17.2121 0 0)
(17.3946 0 0)
(17.5783 0 0)
(17.7632 0 0)
(17.9492 0 0)
(18.1364 0 0)
(18.3249 0 0)
(18.5145 0 0)
(18.7054 0 0)
(18.8974 0 0)
(19.0907 0 0)
(19.2853 0 0)
(19.481 0 0)
(19.678 0 0)
(19.8763 0 0)
(20.0757 0 0)
(20.2765 0 0)
(20.4785 0 0)
(20.6818 0 0)
(20.8864 0 0)
(21.0922 0 0)
(21.2994 0 0)
(21.5078 0 0)
(21.7175 0 0)
(21.9286 0 0)
(22.141 0 0)
(22.3547 0 0)
(22.5697 0 0)
(22.7861 0 0)
(23.0038 0 0)
(23.2228 0 0)
(23.4432 0 0)
(23.6651 0 0)
(23.8882 0 0)
(24.1128 0 0)
(24.3387 0 0)
(24.5662 0 0)
(24.7947 0 0)
(25.0252 0 0)
(25.2564 0 0)
(25.4899 0 0)
(25.7238 0 0)
(25.9604 0 0)
(26.197 0 0)
(26.4368 0 0)
(26.6761 0 0)
(26.919 0 0)
(27.1612 0 0)
(27.4073 0 0)
(27.6523 0 0)
(27.9016 0 0)
(28.1496 0 0)
(28.402 0 0)
(28.6531 0 0)
(28.9086 0 0)
(29.1629 0 0)
(29.4214 0 0)
(29.6793 0 0)
(29.9405 0 0)
(30.2022 0 0)
(30.466 0 0)
(30.7318 0 0)
(30.998 0 0)
(31.2682 0 0)
(31.5366 0 0)
(31.8114 0 0)
(32.082 0 0)
(32.3615 0 0)
(32.6344 0 0)
(32.9185 0 0)
(33.1937 0 0)
(33.4827 0 0)
(33.7602 0 0)
(34.0541 0 0)
(34.334 0 0)
(34.6329 0 0)
(34.9151 0 0)
(35.2191 0 0)
(35.5038 0 0)
(35.813 0 0)
(36.1001 0 0)
(36.4146 0 0)
(36.7043 0 0)
(37.0241 0 0)
(37.3164 0 0)
(37.6417 0 0)
(37.9367 0 0)
(38.2676 0 0)
(38.5652 0 0)
(38.9019 0 0)
(39.2022 0 0)
(39.5447 0 0)
(39.8479 0 0)
(40.1963 0 0)
(40.5024 0 0)
(40.857 0 0)
(41.166 0 0)
(41.5268 0 0)
(41.8389 0 0)
(42.2059 0 0)
(42.5214 0 0)
(42.8946 0 0)
(43.2137 0 0)
(43.5931 0 0)
(43.9161 0 0)
(44.3018 0 0)
(44.6289 0 0)
(45.0208 0 0)
(45.3523 0 0)
(45.7505 0 0)
(46.0866 0 0)
(46.4913 0 0)
(46.8322 0 0)
(47.2435 0 0)
(47.5895 0 0)
(48.0075 0 0)
(48.3588 0 0)
(48.7837 0 0)
(49.1405 0 0)
(49.5726 0 0)
(49.935 0 0)
(50.3745 0 0)
(50.743 0 0)
(51.1902 0 0)
(51.5649 0 0)
(52.02 0 0)
(52.4013 0 0)
(52.8647 0 0)
(53.253 0 0)
(53.7248 0 0)
(54.1205 0 0)
(54.6013 0 0)
(55.0048 0 0)
(55.4948 0 0)
(55.9068 0 0)
(56.4065 0 0)
(56.8273 0 0)
(57.3372 0 0)
(57.7675 0 0)
(58.2882 0 0)
(58.7284 0 0)
(59.2604 0 0)
(59.711 0 0)
(60.2548 0 0)
(60.7161 0 0)
(61.2716 0 0)
(61.7433 0 0)
(62.3098 0 0)
(62.7905 0 0)
(63.3655 0 0)
(63.8512 0 0)
(64.4285 0 0)
(64.9098 0 0)
(65.4801 0 0)
(65.9362 0 0)
(66.4783 0 0)
(66.9095 0 0)
(67.4336 0 0)
(67.8544 0 0)
(68.3757 0 0)
(68.7984 0 0)
(69.3267 0 0)
(69.7566 0 0)
(70.2945 0 0)
(70.7318 0 0)
(71.2775 0 0)
(71.7204 0 0)
(72.2711 0 0)
(72.7175 0 0)
(73.2716 0 0)
(73.7202 0 0)
(74.2772 0 0)
(74.7279 0 0)
(75.2879 0 0)
(75.7409 0 0)
(76.3041 0 0)
(76.7596 0 0)
(77.3263 0 0)
(77.7844 0 0)
(78.3545 0 0)
(78.815 0 0)
(79.3883 0 0)
(79.851 0 0)
(80.4272 0 0)
(80.8919 0 0)
(81.471 0 0)
(81.9375 0 0)
(82.5192 0 0)
(82.9874 0 0)
(83.5716 0 0)
(84.0413 0 0)
(84.6279 0 0)
(85.0988 0 0)
(85.6876 0 0)
(86.1595 0 0)
(86.7502 0 0)
(87.2228 0 0)
(87.8151 0 0)
(88.288 0 0)
(88.8818 0 0)
(89.3547 0 0)
(89.9496 0 0)
(90.4222 0 0)
(91.0181 0 0)
(91.49 0 0)
(92.0866 0 0)
(92.5575 0 0)
(93.1544 0 0)
(93.624 0 0)
(94.2209 0 0)
(94.6887 0 0)
(95.2851 0 0)
(95.7503 0 0)
(96.3455 0 0)
(96.8072 0 0)
(97.4003 0 0)
(97.8573 0 0)
(98.447 0 0)
(98.8975 0 0)
(99.4821 0 0)
(99.9242 0 0)
(100.502 0 0)
(100.933 0 0)
(101.5 0 0)
(101.918 0 0)
(102.473 0 0)
(102.873 0 0)
(103.413 0 0)
(103.795 0 0)
(104.316 0 0)
(104.676 0 0)
(105.184 0 0)
(105.528 0 0)
(106.018 0 0)
(106.328 0 0)
(106.788 0 0)
(107.038 0 0)
(107.459 0 0)
(107.63 0 0)
(108.005 0 0)
(108.082 0 0)
(108.401 0 0)
(108.364 0 0)
(108.606 0 0)
(108.414 0 0)
(108.56 0 0)
(108.174 0 0)
(108.231 0 0)
(107.688 0 0)
(107.721 0 0)
(107.225 0 0)
(108.33 0 0)
)
;

boundaryField
{
    sideLeft
    {
        type            symmetryPlane;
    }
    sideRight
    {
        type            calculated;
        value           uniform (107.925 0 0);
    }
    topbottom
    {
        type            empty;
    }
    frontback
    {
        type            empty;
    }
}


// ************************************************************************* //
