/*--------------------------------*- C++ -*----------------------------------*\
| =========                 |                                                 |
| \\      /  F ield         | OpenFOAM: The Open Source CFD Toolbox           |
|  \\    /   O peration     | Version:  2.4.0                                 |
|   \\  /    A nd           | Web:      www.OpenFOAM.org                      |
|    \\/     M anipulation  |                                                 |
\*---------------------------------------------------------------------------*/
FoamFile
{
    version     2.0;
    format      ascii;
    class       volVectorField;
    location    "0.15";
    object      U.water;
}
// * * * * * * * * * * * * * * * * * * * * * * * * * * * * * * * * * * * * * //

dimensions      [0 1 -1 0 0 0 0];

internalField   nonuniform List<vector> 
1000
(
(-7.81583e-14 0 0)
(-7.10547e-14 0 0)
(-3.62376e-13 0 0)
(-6.39489e-13 0 0)
(-8.45545e-13 0 0)
(-7.3186e-13 0 0)
(-7.17648e-13 0 0)
(-5.96856e-13 0 0)
(-6.39489e-13 0 0)
(-3.83693e-13 0 0)
(-1.20792e-13 0 0)
(-3.33955e-13 0 0)
(-2.84218e-13 0 0)
(-1.35002e-13 0 0)
(-1.42117e-14 0 0)
(5.68443e-14 0 0)
(8.52644e-14 0 0)
(2.13163e-13 0 0)
(4.26325e-13 0 0)
(2.3448e-13 0 0)
(7.67385e-13 0 0)
(7.60282e-13 0 0)
(5.8975e-13 0 0)
(3.33955e-13 0 0)
(2.91323e-13 0 0)
(6.6791e-13 0 0)
(8.66862e-13 0 0)
(4.54747e-13 0 0)
(2.41585e-13 0 0)
(1.70529e-13 0 0)
(1.06582e-13 0 0)
(1.84741e-13 0 0)
(-1.20793e-13 0 0)
(-2.41584e-13 0 0)
(1.42099e-14 0 0)
(-6.39473e-14 0 0)
(-7.81613e-14 0 0)
(-2.70005e-13 0 0)
(4.26316e-14 0 0)
(6.39496e-14 0 0)
(-1.49215e-13 0 0)
(-7.10504e-15 0 0)
(-4.97382e-14 0 0)
(-1.42105e-14 0 0)
(-3.19745e-13 0 0)
(-3.41061e-13 0 0)
(-5.25801e-13 0 0)
(-7.03437e-13 0 0)
(-7.10543e-13 0 0)
(-6.32383e-13 0 0)
(-6.39488e-13 0 0)
(-5.47118e-13 0 0)
(-4.12115e-13 0 0)
(-2.27374e-13 0 0)
(-2.4869e-13 0 0)
(-6.75016e-13 0 0)
(-4.9738e-13 0 0)
(-4.68959e-13 0 0)
(-4.97379e-13 0 0)
(-6.11067e-13 0 0)
(-6.25277e-13 0 0)
(-6.537e-13 0 0)
(-5.61328e-13 0 0)
(-3.19744e-13 0 0)
(-9.23709e-14 0 0)
(-1.98952e-13 0 0)
(-8.52655e-14 0 0)
(-1.13687e-13 0 0)
(-2.77111e-13 0 0)
(-2.27374e-13 0 0)
(-4.54747e-13 0 0)
(-5.25802e-13 0 0)
(-7.17648e-13 0 0)
(-6.11067e-13 0 0)
(-6.53699e-13 0 0)
(-7.17648e-13 0 0)
(-6.32384e-13 0 0)
(-5.54223e-13 0 0)
(-4.83169e-13 0 0)
(-5.47118e-13 0 0)
(-8.02913e-13 0 0)
(-1.00897e-12 0 0)
(-1.09424e-12 0 0)
(-1.23635e-12 0 0)
(-1.17239e-12 0 0)
(-8.73968e-13 0 0)
(-7.81596e-13 0 0)
(-4.8317e-13 0 0)
(-3.2685e-13 0 0)
(-3.05533e-13 0 0)
(-4.40537e-13 0 0)
(-3.83693e-13 0 0)
(-5.68434e-13 0 0)
(-7.03437e-13 0 0)
(-2.41584e-13 0 0)
(-5.68441e-14 0 0)
(1.13688e-13 0 0)
(7.81585e-14 0 0)
(7.81604e-14 0 0)
(3.26849e-13 0 0)
(1.91847e-13 0 0)
(1.35003e-13 0 0)
(7.816e-14 0 0)
(-1.06582e-13 0 0)
(-4.76063e-13 0 0)
(-2.62901e-13 0 0)
(-2.20269e-13 0 0)
(-1.06582e-13 0 0)
(-1.27897e-13 0 0)
(-1.84742e-13 0 0)
(-1.7053e-13 0 0)
(-2.13169e-14 0 0)
(7.10578e-15 0 0)
(-8.52653e-14 0 0)
(1.63425e-13 0 0)
(3.33955e-13 0 0)
(3.19744e-13 0 0)
(1.42109e-13 0 0)
(1.20792e-13 0 0)
(7.10614e-15 0 0)
(9.23698e-14 0 0)
(2.13163e-13 0 0)
(6.32382e-13 0 0)
(6.60805e-13 0 0)
(3.97903e-13 0 0)
(1.5632e-13 0 0)
(2.77111e-13 0 0)
(2.20269e-13 0 0)
(2.06056e-13 0 0)
(-1.63424e-13 0 0)
(-3.05535e-13 0 0)
(-1.63424e-13 0 0)
(-1.63425e-13 0 0)
(-2.20268e-13 0 0)
(-9.23711e-14 0 0)
(-9.94755e-14 0 0)
(1.27898e-13 0 0)
(3.69482e-13 0 0)
(5.61329e-13 0 0)
(7.17648e-13 0 0)
(7.17648e-13 0 0)
(1.03739e-12 0 0)
(1.12266e-12 0 0)
(1.08002e-12 0 0)
(1.08003e-12 0 0)
(1.30029e-12 0 0)
(1.30029e-12 0 0)
(1.23634e-12 0 0)
(1.08002e-12 0 0)
(8.45546e-13 0 0)
(5.11591e-13 0 0)
(6.46594e-13 0 0)
(5.32907e-13 0 0)
(5.32907e-13 0 0)
(3.76588e-13 0 0)
(1.77635e-13 0 0)
(-2.13158e-14 0 0)
(-4.97385e-14 0 0)
(3.91019e-19 0 0)
(3.33955e-13 0 0)
(1.63426e-13 0 0)
(1.8474e-13 0 0)
(1.98953e-13 0 0)
(9.23701e-14 0 0)
(-1.42103e-14 0 0)
(3.55263e-14 0 0)
(1.42118e-14 0 0)
(1.20791e-13 0 0)
(1.70531e-13 0 0)
(2.27374e-13 0 0)
(2.4869e-13 0 0)
(1.49214e-13 0 0)
(3.83693e-13 0 0)
(5.25801e-13 0 0)
(5.61329e-13 0 0)
(6.96331e-13 0 0)
(6.67911e-13 0 0)
(8.73967e-13 0 0)
(9.87655e-13 0 0)
(1.18661e-12 0 0)
(1.19371e-12 0 0)
(1.24345e-12 0 0)
(1.14397e-12 0 0)
(1.10845e-12 0 0)
(1.25766e-12 0 0)
(1.11555e-12 0 0)
(1.3074e-12 0 0)
(1.00187e-12 0 0)
(9.4502e-13 0 0)
(1.00897e-12 0 0)
(1.08002e-12 0 0)
(1.0445e-12 0 0)
(1.15108e-12 0 0)
(1.05871e-12 0 0)
(1.20082e-12 0 0)
(1.02318e-12 0 0)
(1.18661e-12 0 0)
(1.03739e-12 0 0)
(1.00186e-12 0 0)
(1.05871e-12 0 0)
(1.54898e-12 0 0)
(1.47793e-12 0 0)
(1.4424e-12 0 0)
(1.03029e-12 0 0)
(1.15108e-12 0 0)
(1.11555e-12 0 0)
(9.59232e-13 0 0)
(9.73444e-13 0 0)
(1.08003e-12 0 0)
(1.06581e-12 0 0)
(9.09495e-13 0 0)
(9.87654e-13 0 0)
(9.45023e-13 0 0)
(1.1795e-12 0 0)
(1.03739e-12 0 0)
(9.166e-13 0 0)
(6.03962e-13 0 0)
(7.17648e-13 0 0)
(6.11067e-13 0 0)
(3.19744e-13 0 0)
(2.4869e-13 0 0)
(1.77636e-13 0 0)
(4.76063e-13 0 0)
(3.48166e-13 0 0)
(1.91847e-13 0 0)
(9.23703e-14 0 0)
(7.1054e-14 0 0)
(4.2633e-14 0 0)
(1.49214e-13 0 0)
(1.49214e-13 0 0)
(-4.97377e-14 0 0)
(4.26325e-13 0 0)
(5.25802e-13 0 0)
(6.0396e-13 0 0)
(4.97381e-13 0 0)
(7.24752e-13 0 0)
(4.26327e-13 0 0)
(2.84216e-13 0 0)
(2.55796e-13 0 0)
(3.05533e-13 0 0)
(3.90799e-13 0 0)
(4.97379e-13 0 0)
(4.8317e-13 0 0)
(6.32382e-13 0 0)
(7.38965e-13 0 0)
(7.03437e-13 0 0)
(9.02389e-13 0 0)
(8.52651e-13 0 0)
(7.67386e-13 0 0)
(7.17648e-13 0 0)
(7.31859e-13 0 0)
(5.68434e-13 0 0)
(4.05009e-13 0 0)
(6.11067e-13 0 0)
(8.59756e-13 0 0)
(7.46071e-13 0 0)
(8.95283e-13 0 0)
(9.52128e-13 0 0)
(1.03029e-12 0 0)
(8.66863e-13 0 0)
(7.88702e-13 0 0)
(6.537e-13 0 0)
(5.04485e-13 0 0)
(4.9738e-13 0 0)
(4.68959e-13 0 0)
(4.47641e-13 0 0)
(2.91324e-13 0 0)
(1.42094e-14 0 0)
(-4.4764e-13 0 0)
(-1.06583e-13 0 0)
(-7.81586e-14 0 0)
(6.39478e-14 0 0)
(-4.97374e-14 0 0)
(-2.8422e-14 0 0)
(-1.06581e-13 0 0)
(-1.84742e-13 0 0)
(-2.34478e-13 0 0)
(-1.56321e-13 0 0)
(-1.06581e-13 0 0)
(3.55267e-14 0 0)
(-7.10531e-15 0 0)
(-1.56319e-13 0 0)
(-9.23711e-14 0 0)
(-1.42097e-14 0 0)
(1.13686e-13 0 0)
(4.33432e-13 0 0)
(3.33955e-13 0 0)
(3.41061e-13 0 0)
(2.77111e-13 0 0)
(2.4869e-13 0 0)
(3.19744e-13 0 0)
(3.33955e-13 0 0)
(4.47641e-13 0 0)
(4.33432e-13 0 0)
(5.75539e-13 0 0)
(3.41061e-13 0 0)
(1.13687e-13 0 0)
(-3.55271e-13 0 0)
(-4.12115e-13 0 0)
(-3.33954e-13 0 0)
(-2.27375e-13 0 0)
(-1.98951e-13 0 0)
(7.1054e-14 0 0)
(3.55271e-14 0 0)
(-6.39484e-14 0 0)
(-4.0501e-13 0 0)
(-3.62377e-13 0 0)
(-2.34479e-13 0 0)
(-1.84741e-13 0 0)
(-2.41584e-13 0 0)
(1.42103e-14 0 0)
(-1.35003e-13 0 0)
(8.52649e-14 0 0)
(1.49214e-13 0 0)
(2.13159e-14 0 0)
(-2.1316e-14 0 0)
(1.35003e-13 0 0)
(1.13687e-13 0 0)
(2.13166e-14 0 0)
(4.90274e-13 0 0)
(6.18172e-13 0 0)
(4.68959e-13 0 0)
(4.1922e-13 0 0)
(3.97904e-13 0 0)
(2.48689e-13 0 0)
(3.62377e-13 0 0)
(4.26326e-13 0 0)
(5.61328e-13 0 0)
(8.31335e-13 0 0)
(9.09495e-13 0 0)
(7.95808e-13 0 0)
(8.24229e-13 0 0)
(6.89227e-13 0 0)
(7.67385e-13 0 0)
(7.3186e-13 0 0)
(7.81596e-13 0 0)
(6.18173e-13 0 0)
(5.61329e-13 0 0)
(6.11067e-13 0 0)
(6.53699e-13 0 0)
(6.53699e-13 0 0)
(3.55272e-13 0 0)
(2.27373e-13 0 0)
(2.62902e-13 0 0)
(4.68957e-13 0 0)
(3.41062e-13 0 0)
(5.61328e-13 0 0)
(4.97381e-13 0 0)
(4.97379e-13 0 0)
(5.04486e-13 0 0)
(2.4869e-13 0 0)
(7.10545e-14 0 0)
(4.26321e-14 0 0)
(-7.81588e-14 0 0)
(2.13154e-14 0 0)
(2.84221e-14 0 0)
(4.12115e-13 0 0)
(5.32907e-13 0 0)
(4.76063e-13 0 0)
(1.7053e-13 0 0)
(4.26326e-14 0 0)
(2.27374e-13 0 0)
(3.90799e-13 0 0)
(5.18696e-13 0 0)
(2.91323e-13 0 0)
(3.55264e-14 0 0)
(-1.06581e-13 0 0)
(4.26318e-14 0 0)
(1.42109e-13 0 0)
(3.26849e-13 0 0)
(4.1922e-13 0 0)
(3.90798e-13 0 0)
(1.27898e-13 0 0)
(1.63424e-13 0 0)
(2.98429e-13 0 0)
(1.56319e-13 0 0)
(8.52658e-14 0 0)
(-1.27899e-13 0 0)
(-4.61852e-13 0 0)
(-5.11592e-13 0 0)
(-3.69481e-13 0 0)
(-1.49214e-13 0 0)
(-2.84215e-14 0 0)
(3.41061e-13 0 0)
(4.61852e-13 0 0)
(5.54224e-13 0 0)
(7.53174e-13 0 0)
(9.23706e-13 0 0)
(9.66337e-13 0 0)
(7.38965e-13 0 0)
(5.54223e-13 0 0)
(7.81597e-13 0 0)
(4.97379e-13 0 0)
(2.84228e-14 0 0)
(-1.4212e-14 0 0)
(-4.3343e-13 0 0)
(-7.3186e-13 0 0)
(-7.74491e-13 0 0)
(-8.02914e-13 0 0)
(-1.06581e-12 0 0)
(-1.00897e-12 0 0)
(-7.95808e-13 0 0)
(-7.67385e-13 0 0)
(-2.91323e-13 0 0)
(-2.1316e-14 0 0)
(4.97379e-14 0 0)
(1.06581e-13 0 0)
(2.55795e-13 0 0)
(1.98953e-13 0 0)
(-7.10549e-14 0 0)
(-1.91845e-13 0 0)
(-2.13173e-14 0 0)
(-3.62376e-13 0 0)
(-4.40537e-13 0 0)
(-4.1922e-13 0 0)
(-7.38965e-13 0 0)
(-8.88178e-13 0 0)
(-8.24231e-13 0 0)
(-7.03436e-13 0 0)
(-5.18698e-13 0 0)
(-8.24229e-13 0 0)
(-6.96332e-13 0 0)
(-7.95807e-13 0 0)
(-6.32383e-13 0 0)
(-7.53175e-13 0 0)
(-8.95284e-13 0 0)
(-1.02318e-12 0 0)
(-1.0516e-12 0 0)
(-8.81073e-13 0 0)
(-9.66337e-13 0 0)
(-9.87655e-13 0 0)
(-1.0516e-12 0 0)
(-8.31335e-13 0 0)
(-6.11067e-13 0 0)
(-3.2685e-13 0 0)
(-2.27373e-13 0 0)
(-1.42109e-13 0 0)
(-2.4869e-13 0 0)
(-3.12639e-13 0 0)
(-9.94751e-14 0 0)
(1.35002e-13 0 0)
(3.2685e-13 0 0)
(7.24753e-13 0 0)
(1.35714e-12 0 0)
(2.10321e-12 0 0)
(2.89191e-12 0 0)
(3.9222e-12 0 0)
(5.59908e-12 0 0)
(7.88702e-12 0 0)
(1.12266e-11 0 0)
(1.61862e-11 0 0)
(2.38245e-11 0 0)
(3.53779e-11 0 0)
(5.27933e-11 0 0)
(7.94316e-11 0 0)
(1.20295e-10 0 0)
(1.82517e-10 0 0)
(2.76017e-10 0 0)
(4.17003e-10 0 0)
(6.27779e-10 0 0)
(9.42443e-10 0 0)
(1.41002e-09 0 0)
(2.1037e-09 0 0)
(3.12863e-09 0 0)
(4.63857e-09 0 0)
(6.85461e-09 0 0)
(1.00972e-08 0 0)
(1.48258e-08 0 0)
(2.16984e-08 0 0)
(3.16539e-08 0 0)
(4.60264e-08 0 0)
(6.67061e-08 0 0)
(9.63595e-08 0 0)
(1.38735e-07 0 0)
(1.99082e-07 0 0)
(2.84725e-07 0 0)
(4.05843e-07 0 0)
(5.76531e-07 0 0)
(8.16228e-07 0 0)
(1.15164e-06 0 0)
(1.6193e-06 0 0)
(2.26903e-06 0 0)
(3.16843e-06 0 0)
(4.40892e-06 0 0)
(6.11358e-06 0 0)
(8.44745e-06 0 0)
(1.16309e-05 0 0)
(1.59571e-05 0 0)
(2.18139e-05 0 0)
(2.9713e-05 0 0)
(4.0326e-05 0 0)
(5.45304e-05 0 0)
(7.34683e-05 0 0)
(9.86187e-05 0 0)
(0.000131889 0 0)
(0.000175727 0 0)
(0.00023326 0 0)
(0.000308465 0 0)
(0.000406373 0 0)
(0.000533323 0 0)
(0.000697254 0 0)
(0.00090807 0 0)
(0.00117806 0 0)
(0.00152238 0 0)
(0.00195966 0 0)
(0.00251264 0 0)
(0.00320896 0 0)
(0.00408199 0 0)
(0.00517186 0 0)
(0.0065265 0 0)
(0.00820282 0 0)
(0.0102681 0 0)
(0.0128012 0 0)
(0.0158942 0 0)
(0.0196539 0 0)
(0.0242033 0 0)
(0.0296831 0 0)
(0.0362534 0 0)
(0.0440949 0 0)
(0.0534103 0 0)
(0.0644252 0 0)
(0.0773892 0 0)
(0.0925757 0 0)
(0.110283 0 0)
(0.130832 0 0)
(0.154567 0 0)
(0.181856 0 0)
(0.213082 0 0)
(0.248649 0 0)
(0.288971 0 0)
(0.334476 0 0)
(0.385593 0 0)
(0.442756 0 0)
(0.506394 0 0)
(0.576926 0 0)
(0.654757 0 0)
(0.740273 0 0)
(0.833837 0 0)
(0.93578 0 0)
(1.0464 0 0)
(1.16596 0 0)
(1.29468 0 0)
(1.43273 0 0)
(1.58026 0 0)
(1.73733 0 0)
(1.90399 0 0)
(2.08024 0 0)
(2.26601 0 0)
(2.46122 0 0)
(2.66571 0 0)
(2.87931 0 0)
(3.10181 0 0)
(3.33295 0 0)
(3.57247 0 0)
(3.82005 0 0)
(4.07539 0 0)
(4.33813 0 0)
(4.60792 0 0)
(4.88441 0 0)
(5.16721 0 0)
(5.45596 0 0)
(5.75029 0 0)
(6.04982 0 0)
(6.35419 0 0)
(6.66305 0 0)
(6.97604 0 0)
(7.29283 0 0)
(7.6131 0 0)
(7.93653 0 0)
(8.26283 0 0)
(8.59173 0 0)
(8.92295 0 0)
(9.25624 0 0)
(9.59138 0 0)
(9.92815 0 0)
(10.2664 0 0)
(10.6058 0 0)
(10.9463 0 0)
(11.2877 0 0)
(11.6299 0 0)
(11.9728 0 0)
(12.3162 0 0)
(12.66 0 0)
(13.0041 0 0)
(13.3485 0 0)
(13.6931 0 0)
(14.0378 0 0)
(14.3825 0 0)
(14.7273 0 0)
(15.072 0 0)
(15.4167 0 0)
(15.7612 0 0)
(16.1057 0 0)
(16.45 0 0)
(16.7942 0 0)
(17.1381 0 0)
(17.482 0 0)
(17.8256 0 0)
(18.169 0 0)
(18.5123 0 0)
(18.8554 0 0)
(19.1983 0 0)
(19.541 0 0)
(19.8835 0 0)
(20.2259 0 0)
(20.5681 0 0)
(20.9101 0 0)
(21.252 0 0)
(21.5938 0 0)
(21.9354 0 0)
(22.2769 0 0)
(22.6182 0 0)
(22.9595 0 0)
(23.3007 0 0)
(23.6417 0 0)
(23.9827 0 0)
(24.3237 0 0)
(24.6645 0 0)
(25.0053 0 0)
(25.3461 0 0)
(25.6868 0 0)
(26.0275 0 0)
(26.3682 0 0)
(26.7089 0 0)
(27.0495 0 0)
(27.3902 0 0)
(27.7309 0 0)
(28.0716 0 0)
(28.4123 0 0)
(28.7531 0 0)
(29.0939 0 0)
(29.4347 0 0)
(29.7756 0 0)
(30.1166 0 0)
(30.4576 0 0)
(30.7988 0 0)
(31.1399 0 0)
(31.4812 0 0)
(31.8226 0 0)
(32.164 0 0)
(32.5056 0 0)
(32.8473 0 0)
(33.189 0 0)
(33.5309 0 0)
(33.8729 0 0)
(34.215 0 0)
(34.5573 0 0)
(34.8996 0 0)
(35.2421 0 0)
(35.5848 0 0)
(35.9275 0 0)
(36.2705 0 0)
(36.6135 0 0)
(36.9567 0 0)
(37.3001 0 0)
(37.6436 0 0)
(37.9872 0 0)
(38.3311 0 0)
(38.675 0 0)
(39.0192 0 0)
(39.3635 0 0)
(39.708 0 0)
(40.0526 0 0)
(40.3975 0 0)
(40.7425 0 0)
(41.0877 0 0)
(41.433 0 0)
(41.7786 0 0)
(42.1244 0 0)
(42.4703 0 0)
(42.8165 0 0)
(43.1629 0 0)
(43.5094 0 0)
(43.8562 0 0)
(44.2033 0 0)
(44.5505 0 0)
(44.8979 0 0)
(45.2456 0 0)
(45.5936 0 0)
(45.9418 0 0)
(46.2902 0 0)
(46.6389 0 0)
(46.9878 0 0)
(47.337 0 0)
(47.6865 0 0)
(48.0362 0 0)
(48.3863 0 0)
(48.7366 0 0)
(49.0872 0 0)
(49.4381 0 0)
(49.7894 0 0)
(50.1409 0 0)
(50.4927 0 0)
(50.8449 0 0)
(51.1974 0 0)
(51.5502 0 0)
(51.9034 0 0)
(52.2569 0 0)
(52.6108 0 0)
(52.965 0 0)
(53.3196 0 0)
(53.6746 0 0)
(54.0299 0 0)
(54.3856 0 0)
(54.7417 0 0)
(55.0982 0 0)
(55.4551 0 0)
(55.8124 0 0)
(56.1701 0 0)
(56.5282 0 0)
(56.8867 0 0)
(57.2457 0 0)
(57.605 0 0)
(57.9648 0 0)
(58.3251 0 0)
(58.6858 0 0)
(59.0469 0 0)
(59.4085 0 0)
(59.7706 0 0)
(60.1331 0 0)
(60.4961 0 0)
(60.8596 0 0)
(61.2235 0 0)
(61.588 0 0)
(61.953 0 0)
(62.3184 0 0)
(62.6844 0 0)
(63.0509 0 0)
(63.4179 0 0)
(63.7854 0 0)
(64.1535 0 0)
(64.5221 0 0)
(64.8913 0 0)
(65.261 0 0)
(65.6313 0 0)
(66.0022 0 0)
(66.3736 0 0)
(66.7457 0 0)
(67.1183 0 0)
(67.4915 0 0)
(67.8654 0 0)
(68.2398 0 0)
(68.6149 0 0)
(68.9907 0 0)
(69.367 0 0)
(69.7441 0 0)
(70.1217 0 0)
(70.5001 0 0)
(70.8792 0 0)
(71.2589 0 0)
(71.6393 0 0)
(72.0204 0 0)
(72.4023 0 0)
(72.7849 0 0)
(73.1682 0 0)
(73.5522 0 0)
(73.9371 0 0)
(74.3226 0 0)
(74.709 0 0)
(75.0961 0 0)
(75.4841 0 0)
(75.8728 0 0)
(76.2624 0 0)
(76.6528 0 0)
(77.044 0 0)
(77.4361 0 0)
(77.829 0 0)
(78.2228 0 0)
(78.6176 0 0)
(79.0131 0 0)
(79.4097 0 0)
(79.8069 0 0)
(80.2055 0 0)
(80.6045 0 0)
(81.0053 0 0)
(81.4057 0 0)
(81.809 0 0)
(82.2106 0 0)
(82.6171 0 0)
(83.0193 0 0)
(83.4297 0 0)
(83.8317 0 0)
(84.2471 0 0)
(84.6478 0 0)
(85.0695 0 0)
(85.468 0 0)
(85.8966 0 0)
(86.2925 0 0)
(86.7281 0 0)
(87.1222 0 0)
(87.5634 0 0)
(87.9579 0 0)
(88.4028 0 0)
(88.7998 0 0)
(89.2457 0 0)
(89.6483 0 0)
(90.0927 0 0)
(90.5035 0 0)
(90.9437 0 0)
(91.3658 0 0)
(91.7984 0 0)
(92.2362 0 0)
(92.6559 0 0)
(93.1159 0 0)
(93.5157 0 0)
(94.0056 0 0)
(94.3781 0 0)
(94.9043 0 0)
(95.2457 0 0)
(95.8087 0 0)
(96.1225 0 0)
(96.714 0 0)
(97.0138 0 0)
(97.6167 0 0)
(97.9196 0 0)
(98.5257 0 0)
(98.8316 0 0)
(99.4438 0 0)
(99.7515 0 0)
(100.368 0 0)
(100.679 0 0)
(101.302 0 0)
(101.615 0 0)
(102.243 0 0)
(102.56 0 0)
(103.194 0 0)
(103.513 0 0)
(104.153 0 0)
(104.476 0 0)
(105.122 0 0)
(105.448 0 0)
(106.101 0 0)
(106.431 0 0)
(107.091 0 0)
(107.424 0 0)
(108.091 0 0)
(108.428 0 0)
(109.102 0 0)
(109.443 0 0)
(110.126 0 0)
(110.471 0 0)
(111.162 0 0)
(111.512 0 0)
(112.211 0 0)
(112.569 0 0)
(113.267 0 0)
(113.647 0 0)
(114.331 0 0)
(114.743 0 0)
(115.41 0 0)
(115.853 0 0)
(116.508 0 0)
(116.976 0 0)
(117.625 0 0)
(118.117 0 0)
(118.759 0 0)
(119.277 0 0)
(119.913 0 0)
(120.455 0 0)
(121.089 0 0)
(121.652 0 0)
(122.288 0 0)
(122.871 0 0)
(123.512 0 0)
(124.112 0 0)
(124.763 0 0)
(125.376 0 0)
(126.041 0 0)
(126.668 0 0)
(127.348 0 0)
(127.99 0 0)
(128.686 0 0)
(129.344 0 0)
(130.057 0 0)
(130.734 0 0)
(131.464 0 0)
(132.163 0 0)
(132.911 0 0)
(133.633 0 0)
(134.403 0 0)
(135.149 0 0)
(135.944 0 0)
(136.716 0 0)
(137.539 0 0)
(138.339 0 0)
(139.195 0 0)
(140.026 0 0)
(140.916 0 0)
(141.783 0 0)
(142.71 0 0)
(143.616 0 0)
(144.582 0 0)
(145.529 0 0)
(146.535 0 0)
(147.522 0 0)
(148.565 0 0)
(149.585 0 0)
(150.656 0 0)
(151.694 0 0)
(152.766 0 0)
(153.783 0 0)
(154.807 0 0)
(155.712 0 0)
(156.595 0 0)
(157.355 0 0)
(158.111 0 0)
(158.768 0 0)
(159.455 0 0)
(160.07 0 0)
(160.745 0 0)
(161.363 0 0)
(162.057 0 0)
(162.701 0 0)
(163.417 0 0)
(164.089 0 0)
(164.819 0 0)
(165.508 0 0)
(166.237 0 0)
(166.93 0 0)
(167.649 0 0)
(168.335 0 0)
(169.042 0 0)
(169.719 0 0)
(170.417 0 0)
(171.085 0 0)
(171.775 0 0)
(172.438 0 0)
(173.124 0 0)
(173.784 0 0)
(174.466 0 0)
(175.125 0 0)
(175.802 0 0)
(176.46 0 0)
(177.128 0 0)
(177.786 0 0)
(178.442 0 0)
(179.098 0 0)
(179.742 0 0)
(180.393 0 0)
(181.025 0 0)
(181.668 0 0)
(182.292 0 0)
(182.923 0 0)
(183.54 0 0)
(184.157 0 0)
(184.769 0 0)
(185.371 0 0)
(185.977 0 0)
(186.567 0 0)
(187.166 0 0)
(187.744 0 0)
(188.332 0 0)
(188.901 0 0)
(189.477 0 0)
(190.042 0 0)
(190.602 0 0)
(191.161 0 0)
(191.703 0 0)
(192.253 0 0)
(192.781 0 0)
(193.317 0 0)
(193.833 0 0)
(194.348 0 0)
(194.853 0 0)
(195.341 0 0)
(195.831 0 0)
(196.29 0 0)
(196.756 0 0)
(197.189 0 0)
(197.618 0 0)
(198.023 0 0)
(198.404 0 0)
(198.779 0 0)
(199.11 0 0)
(199.445 0 0)
(199.716 0 0)
(200.004 0 0)
(200.226 0 0)
(200.454 0 0)
(200.616 0 0)
(200.747 0 0)
(200.837 0 0)
(200.859 0 0)
(200.89 0 0)
(200.9 0 0)
(200.891 0 0)
(200.888 0 0)
(200.892 0 0)
(200.905 0 0)
(200.882 0 0)
(200.701 0 0)
(200.218 0 0)
(199.027 0 0)
(197.604 0 0)
(194.445 0 0)
(191.683 0 0)
(186.123 0 0)
(181.206 0 0)
(174.764 0 0)
(171.762 0 0)
)
;

boundaryField
{
    sideLeft
    {
        type            symmetryPlane;
    }
    sideRight
    {
        type            zeroGradient;
    }
    topbottom
    {
        type            empty;
    }
    frontback
    {
        type            empty;
    }
}


// ************************************************************************* //
