/*--------------------------------*- C++ -*----------------------------------*\
| =========                 |                                                 |
| \\      /  F ield         | OpenFOAM: The Open Source CFD Toolbox           |
|  \\    /   O peration     | Version:  2.4.0                                 |
|   \\  /    A nd           | Web:      www.OpenFOAM.org                      |
|    \\/     M anipulation  |                                                 |
\*---------------------------------------------------------------------------*/
FoamFile
{
    version     2.0;
    format      ascii;
    class       volVectorField;
    location    "0.15";
    object      U.waterMean;
}
// * * * * * * * * * * * * * * * * * * * * * * * * * * * * * * * * * * * * * //

dimensions      [0 1 -1 0 0 0 0];

internalField   nonuniform List<vector> 
1000
(
(-6.76808e-14 0 0)
(-3.6669e-14 0 0)
(-7.40288e-14 0 0)
(-4.29218e-14 0 0)
(-9.9395e-14 0 0)
(-3.66739e-14 0 0)
(-8.29627e-14 0 0)
(-7.15896e-14 0 0)
(-7.47254e-14 0 0)
(-6.72696e-14 0 0)
(-7.4228e-14 0 0)
(-1.10205e-13 0 0)
(-6.7284e-14 0 0)
(-1.26059e-13 0 0)
(-5.9686e-14 0 0)
(-1.0876e-13 0 0)
(-4.53045e-14 0 0)
(-8.1608e-14 0 0)
(-2.72142e-14 0 0)
(-1.05837e-13 0 0)
(-2.54522e-14 0 0)
(-1.01981e-13 0 0)
(-6.71134e-14 0 0)
(-1.05042e-13 0 0)
(-1.10854e-13 0 0)
(-1.0642e-13 0 0)
(-1.21574e-13 0 0)
(-9.87658e-14 0 0)
(-1.50762e-13 0 0)
(-8.4754e-14 0 0)
(-1.23956e-13 0 0)
(-1.16249e-13 0 0)
(-1.00168e-13 0 0)
(-1.21261e-13 0 0)
(-6.96337e-14 0 0)
(-1.51904e-13 0 0)
(-3.00947e-14 0 0)
(-1.19697e-13 0 0)
(-5.17801e-14 0 0)
(-1.12308e-13 0 0)
(-6.66162e-14 0 0)
(-1.01072e-13 0 0)
(-8.04573e-14 0 0)
(-9.50609e-14 0 0)
(-6.9316e-14 0 0)
(-7.7307e-14 0 0)
(-8.35124e-14 0 0)
(-6.94343e-14 0 0)
(-8.06371e-14 0 0)
(-7.30961e-14 0 0)
(-8.15937e-14 0 0)
(-5.43236e-14 0 0)
(-6.11396e-14 0 0)
(-3.7119e-14 0 0)
(-3.91554e-14 0 0)
(-1.35005e-14 0 0)
(-2.35758e-14 0 0)
(-1.42536e-14 0 0)
(-4.49961e-14 0 0)
(-1.36474e-14 0 0)
(-5.77762e-14 0 0)
(2.41059e-14 0 0)
(-2.3353e-14 0 0)
(-2.47599e-14 0 0)
(1.01322e-14 0 0)
(-5.81211e-15 0 0)
(2.19224e-14 0 0)
(8.57858e-15 0 0)
(-3.62836e-15 0 0)
(8.64469e-15 0 0)
(-2.14487e-14 0 0)
(-1.26953e-14 0 0)
(-4.71039e-14 0 0)
(-1.26716e-14 0 0)
(-2.30832e-14 0 0)
(-4.72035e-14 0 0)
(-1.54381e-14 0 0)
(-5.10214e-14 0 0)
(-4.69573e-14 0 0)
(-3.32108e-14 0 0)
(-4.92027e-14 0 0)
(-2.07669e-14 0 0)
(-3.50107e-14 0 0)
(4.60877e-15 0 0)
(-6.12011e-14 0 0)
(-1.13595e-14 0 0)
(-5.8989e-14 0 0)
(-2.08571e-14 0 0)
(-5.07375e-14 0 0)
(-5.3101e-14 0 0)
(-2.80287e-14 0 0)
(-3.96483e-14 0 0)
(-4.26277e-14 0 0)
(-3.72278e-14 0 0)
(-5.99886e-14 0 0)
(-3.29792e-14 0 0)
(-9.98686e-14 0 0)
(-1.46851e-14 0 0)
(-8.49521e-14 0 0)
(-6.25705e-14 0 0)
(-8.84813e-14 0 0)
(-5.33998e-14 0 0)
(-8.34982e-14 0 0)
(-6.22531e-14 0 0)
(-8.21767e-14 0 0)
(-8.20485e-14 0 0)
(-5.61237e-14 0 0)
(-7.64071e-14 0 0)
(-9.87131e-14 0 0)
(-7.52799e-14 0 0)
(-1.20062e-13 0 0)
(-6.77482e-14 0 0)
(-1.01811e-13 0 0)
(-8.50285e-14 0 0)
(-9.65721e-14 0 0)
(-8.03481e-14 0 0)
(-5.33381e-14 0 0)
(-3.46509e-14 0 0)
(-1.2823e-14 0 0)
(-5.08652e-14 0 0)
(1.17711e-14 0 0)
(-2.03735e-14 0 0)
(4.09128e-14 0 0)
(-4.22987e-15 0 0)
(3.60575e-14 0 0)
(-1.95776e-14 0 0)
(2.50819e-14 0 0)
(-1.69201e-14 0 0)
(3.97141e-14 0 0)
(-3.61802e-14 0 0)
(3.7625e-14 0 0)
(-4.75064e-14 0 0)
(3.10249e-15 0 0)
(-2.1714e-14 0 0)
(2.26282e-14 0 0)
(-5.79305e-15 0 0)
(1.54187e-14 0 0)
(2.57264e-14 0 0)
(4.24382e-14 0 0)
(5.11307e-14 0 0)
(3.06055e-14 0 0)
(5.26368e-14 0 0)
(5.54261e-15 0 0)
(4.78097e-14 0 0)
(-1.03877e-14 0 0)
(5.01877e-14 0 0)
(1.62146e-14 0 0)
(2.05916e-14 0 0)
(3.25475e-14 0 0)
(1.93031e-14 0 0)
(8.5928e-15 0 0)
(-2.52471e-15 0 0)
(-1.33108e-15 0 0)
(1.39504e-14 0 0)
(2.33768e-14 0 0)
(4.73837e-14 0 0)
(8.07186e-15 0 0)
(3.17801e-14 0 0)
(-9.24645e-15 0 0)
(1.83934e-14 0 0)
(-2.62091e-14 0 0)
(5.42188e-14 0 0)
(5.38622e-15 0 0)
(4.33144e-14 0 0)
(1.67028e-14 0 0)
(6.74017e-14 0 0)
(-3.62342e-15 0 0)
(6.13668e-14 0 0)
(-9.32965e-16 0 0)
(1.26714e-14 0 0)
(5.31961e-15 0 0)
(1.10606e-14 0 0)
(-8.77736e-15 0 0)
(2.20929e-14 0 0)
(-2.75687e-14 0 0)
(9.69614e-15 0 0)
(-5.25324e-14 0 0)
(7.89611e-15 0 0)
(-6.17696e-14 0 0)
(-5.78997e-14 0 0)
(-5.6114e-14 0 0)
(-5.82076e-14 0 0)
(-3.9208e-14 0 0)
(-1.00248e-13 0 0)
(-2.71954e-14 0 0)
(-1.11706e-13 0 0)
(-2.86639e-14 0 0)
(-1.38105e-13 0 0)
(-8.37574e-15 0 0)
(-1.05415e-13 0 0)
(-1.22646e-14 0 0)
(-1.07661e-13 0 0)
(-2.01372e-14 0 0)
(-1.02427e-13 0 0)
(-5.56593e-14 0 0)
(-1.021e-13 0 0)
(-7.54739e-14 0 0)
(-8.99358e-14 0 0)
(-6.2831e-14 0 0)
(-1.01191e-13 0 0)
(-5.75354e-14 0 0)
(-1.29219e-13 0 0)
(-3.77587e-14 0 0)
(-1.00911e-13 0 0)
(-7.22338e-14 0 0)
(-7.25937e-14 0 0)
(-3.2382e-14 0 0)
(-4.96242e-14 0 0)
(-5.93349e-14 0 0)
(-3.10413e-14 0 0)
(-2.56411e-14 0 0)
(-6.16294e-15 0 0)
(-3.62374e-14 0 0)
(2.68582e-14 0 0)
(-1.51106e-14 0 0)
(4.18365e-14 0 0)
(9.32723e-15 0 0)
(1.85783e-14 0 0)
(2.06769e-14 0 0)
(1.77398e-14 0 0)
(3.15575e-14 0 0)
(7.34717e-15 0 0)
(3.26943e-14 0 0)
(1.62998e-14 0 0)
(5.98303e-15 0 0)
(3.58301e-14 0 0)
(4.09271e-14 0 0)
(1.29748e-14 0 0)
(4.20591e-14 0 0)
(1.59305e-14 0 0)
(-7.22382e-15 0 0)
(8.75856e-15 0 0)
(-3.67206e-14 0 0)
(2.8194e-14 0 0)
(-3.71515e-14 0 0)
(5.25845e-14 0 0)
(-2.49302e-14 0 0)
(3.44799e-14 0 0)
(-3.3959e-14 0 0)
(-1.75977e-14 0 0)
(-1.38508e-14 0 0)
(5.06829e-15 0 0)
(-4.38542e-14 0 0)
(3.97472e-14 0 0)
(2.1461e-15 0 0)
(1.65839e-14 0 0)
(2.62571e-14 0 0)
(3.77155e-14 0 0)
(2.89476e-14 0 0)
(4.6801e-14 0 0)
(3.60673e-14 0 0)
(6.3366e-14 0 0)
(6.12393e-14 0 0)
(2.88815e-14 0 0)
(7.78799e-14 0 0)
(2.08099e-14 0 0)
(8.03005e-14 0 0)
(2.93173e-14 0 0)
(8.58663e-14 0 0)
(2.56938e-14 0 0)
(1.06164e-13 0 0)
(5.7507e-14 0 0)
(8.00353e-14 0 0)
(6.81694e-14 0 0)
(3.48452e-14 0 0)
(7.19871e-14 0 0)
(-1.15519e-15 0 0)
(1.11081e-13 0 0)
(2.05067e-14 0 0)
(1.33686e-13 0 0)
(5.16616e-14 0 0)
(1.31701e-13 0 0)
(6.42665e-14 0 0)
(9.26357e-14 0 0)
(7.89604e-14 0 0)
(1.18262e-13 0 0)
(5.84829e-14 0 0)
(1.38655e-13 0 0)
(7.37311e-14 0 0)
(1.28575e-13 0 0)
(1.2245e-13 0 0)
(1.34833e-13 0 0)
(1.36902e-13 0 0)
(6.67964e-14 0 0)
(1.50227e-13 0 0)
(9.89836e-14 0 0)
(1.11489e-13 0 0)
(1.17102e-13 0 0)
(1.35609e-13 0 0)
(1.00433e-13 0 0)
(1.34302e-13 0 0)
(1.24809e-13 0 0)
(1.51075e-13 0 0)
(9.30863e-14 0 0)
(1.73694e-13 0 0)
(1.23919e-13 0 0)
(1.40593e-13 0 0)
(1.46708e-13 0 0)
(1.59555e-13 0 0)
(1.11158e-13 0 0)
(1.78019e-13 0 0)
(1.29977e-13 0 0)
(1.49152e-13 0 0)
(1.39243e-13 0 0)
(1.16529e-13 0 0)
(1.53287e-13 0 0)
(1.32194e-13 0 0)
(1.23478e-13 0 0)
(1.10181e-13 0 0)
(8.16226e-14 0 0)
(1.28902e-13 0 0)
(9.18118e-14 0 0)
(1.20285e-13 0 0)
(1.0841e-13 0 0)
(1.47736e-13 0 0)
(1.37495e-13 0 0)
(1.63974e-13 0 0)
(1.2831e-13 0 0)
(1.30077e-13 0 0)
(1.66475e-13 0 0)
(1.61521e-13 0 0)
(1.5317e-13 0 0)
(1.73713e-13 0 0)
(1.50834e-13 0 0)
(1.79279e-13 0 0)
(1.37779e-13 0 0)
(1.23682e-13 0 0)
(1.34496e-13 0 0)
(1.11768e-13 0 0)
(1.24208e-13 0 0)
(1.43653e-13 0 0)
(1.52425e-13 0 0)
(1.10243e-13 0 0)
(1.80454e-13 0 0)
(9.39058e-14 0 0)
(1.63557e-13 0 0)
(9.55587e-14 0 0)
(1.03384e-13 0 0)
(1.09675e-13 0 0)
(1.00442e-13 0 0)
(1.16643e-13 0 0)
(9.22143e-14 0 0)
(9.99779e-14 0 0)
(5.73507e-14 0 0)
(1.02848e-13 0 0)
(3.25908e-14 0 0)
(1.24548e-13 0 0)
(6.42477e-14 0 0)
(1.01584e-13 0 0)
(7.38682e-14 0 0)
(8.83583e-14 0 0)
(8.31099e-14 0 0)
(1.08538e-13 0 0)
(6.40723e-14 0 0)
(1.3829e-13 0 0)
(9.00589e-14 0 0)
(1.01996e-13 0 0)
(1.08864e-13 0 0)
(1.26372e-13 0 0)
(1.21939e-13 0 0)
(1.12152e-13 0 0)
(1.01911e-13 0 0)
(8.61227e-14 0 0)
(1.0769e-13 0 0)
(1.07642e-13 0 0)
(1.38186e-13 0 0)
(7.39395e-14 0 0)
(1.30972e-13 0 0)
(9.01444e-14 0 0)
(1.12133e-13 0 0)
(9.98124e-14 0 0)
(1.27722e-13 0 0)
(1.04137e-13 0 0)
(1.26898e-13 0 0)
(1.06563e-13 0 0)
(1.59867e-13 0 0)
(1.26396e-13 0 0)
(1.86522e-13 0 0)
(1.14696e-13 0 0)
(1.93963e-13 0 0)
(1.2615e-13 0 0)
(1.60587e-13 0 0)
(1.22161e-13 0 0)
(1.14942e-13 0 0)
(1.19077e-13 0 0)
(6.19979e-14 0 0)
(1.48266e-13 0 0)
(8.03439e-14 0 0)
(1.33567e-13 0 0)
(7.25231e-14 0 0)
(9.88458e-14 0 0)
(8.85574e-14 0 0)
(1.1353e-13 0 0)
(4.83742e-14 0 0)
(1.29157e-13 0 0)
(5.31964e-14 0 0)
(1.07548e-13 0 0)
(7.92211e-14 0 0)
(1.41251e-13 0 0)
(9.96798e-14 0 0)
(1.20664e-13 0 0)
(1.32597e-13 0 0)
(9.26315e-14 0 0)
(1.49649e-13 0 0)
(1.1877e-13 0 0)
(1.33838e-13 0 0)
(1.35709e-13 0 0)
(1.50365e-13 0 0)
(9.94479e-14 0 0)
(1.39389e-13 0 0)
(8.29491e-14 0 0)
(1.5712e-13 0 0)
(9.63072e-14 0 0)
(1.29835e-13 0 0)
(9.58334e-14 0 0)
(1.27092e-13 0 0)
(9.08975e-14 0 0)
(1.391e-13 0 0)
(5.34573e-14 0 0)
(1.72997e-13 0 0)
(9.22383e-14 0 0)
(1.33539e-13 0 0)
(1.07084e-13 0 0)
(1.4072e-13 0 0)
(1.2228e-13 0 0)
(1.09215e-13 0 0)
(1.4063e-13 0 0)
(9.96656e-14 0 0)
(1.23198e-13 0 0)
(8.15233e-14 0 0)
(1.383e-13 0 0)
(1.04431e-13 0 0)
(1.04554e-13 0 0)
(1.30432e-13 0 0)
(1.34752e-13 0 0)
(1.04786e-13 0 0)
(1.16998e-13 0 0)
(7.18646e-14 0 0)
(9.07454e-14 0 0)
(3.88009e-14 0 0)
(1.00361e-13 0 0)
(4.64462e-14 0 0)
(7.6227e-14 0 0)
(8.20298e-14 0 0)
(9.39717e-14 0 0)
(1.05283e-13 0 0)
(9.07602e-14 0 0)
(1.31801e-13 0 0)
(1.20674e-13 0 0)
(1.38703e-13 0 0)
(1.74519e-13 0 0)
(1.90009e-13 0 0)
(3.06784e-13 0 0)
(3.76829e-13 0 0)
(5.1728e-13 0 0)
(7.45288e-13 0 0)
(1.06949e-12 0 0)
(1.5138e-12 0 0)
(2.293e-12 0 0)
(3.31491e-12 0 0)
(5.10101e-12 0 0)
(7.51259e-12 0 0)
(1.1323e-11 0 0)
(1.68167e-11 0 0)
(2.51871e-11 0 0)
(3.73904e-11 0 0)
(5.55594e-11 0 0)
(8.21741e-11 0 0)
(1.21297e-10 0 0)
(1.7839e-10 0 0)
(2.61581e-10 0 0)
(3.8238e-10 0 0)
(5.57178e-10 0 0)
(8.09279e-10 0 0)
(1.17167e-09 0 0)
(1.6909e-09 0 0)
(2.43233e-09 0 0)
(3.48754e-09 0 0)
(4.98411e-09 0 0)
(7.09967e-09 0 0)
(1.00797e-08 0 0)
(1.42632e-08 0 0)
(2.01157e-08 0 0)
(2.8275e-08 0 0)
(3.96101e-08 0 0)
(5.53021e-08 0 0)
(7.69486e-08 0 0)
(1.06703e-07 0 0)
(1.47457e-07 0 0)
(2.03075e-07 0 0)
(2.78705e-07 0 0)
(3.81174e-07 0 0)
(5.195e-07 0 0)
(7.05544e-07 0 0)
(9.54843e-07 0 0)
(1.28767e-06 0 0)
(1.73034e-06 0 0)
(2.3169e-06 0 0)
(3.0912e-06 0 0)
(4.10944e-06 0 0)
(5.44338e-06 0 0)
(7.18419e-06 0 0)
(9.44721e-06 0 0)
(1.23777e-05 0 0)
(1.61578e-05 0 0)
(2.10146e-05 0 0)
(2.72304e-05 0 0)
(3.51539e-05 0 0)
(4.52142e-05 0 0)
(5.79364e-05 0 0)
(7.39604e-05 0 0)
(9.40618e-05 0 0)
(0.000119176 0 0)
(0.000150426 0 0)
(0.000189151 0 0)
(0.000236944 0 0)
(0.000295685 0 0)
(0.000367586 0 0)
(0.000455231 0 0)
(0.000561625 0 0)
(0.000690244 0 0)
(0.000845085 0 0)
(0.00103072 0 0)
(0.00125235 0 0)
(0.00151587 0 0)
(0.00182787 0 0)
(0.00219578 0 0)
(0.00262781 0 0)
(0.00313306 0 0)
(0.00372154 0 0)
(0.00440418 0 0)
(0.00519286 0 0)
(0.00610043 0 0)
(0.00714069 0 0)
(0.00832839 0 0)
(0.00967918 0 0)
(0.0112096 0 0)
(0.0129371 0 0)
(0.0148798 0 0)
(0.0170567 0 0)
(0.0194871 0 0)
(0.0221914 0 0)
(0.0251899 0 0)
(0.0285036 0 0)
(0.0321537 0 0)
(0.0361615 0 0)
(0.0405486 0 0)
(0.0453362 0 0)
(0.0505457 0 0)
(0.0561981 0 0)
(0.062314 0 0)
(0.0689139 0 0)
(0.0760176 0 0)
(0.0836444 0 0)
(0.0918131 0 0)
(0.100542 0 0)
(0.109847 0 0)
(0.119747 0 0)
(0.130256 0 0)
(0.141391 0 0)
(0.153164 0 0)
(0.165591 0 0)
(0.178682 0 0)
(0.192451 0 0)
(0.206909 0 0)
(0.222065 0 0)
(0.23793 0 0)
(0.254513 0 0)
(0.271822 0 0)
(0.289863 0 0)
(0.308646 0 0)
(0.328175 0 0)
(0.348457 0 0)
(0.369497 0 0)
(0.391299 0 0)
(0.413869 0 0)
(0.43721 0 0)
(0.461326 0 0)
(0.486219 0 0)
(0.511893 0 0)
(0.538351 0 0)
(0.565594 0 0)
(0.593625 0 0)
(0.622446 0 0)
(0.652057 0 0)
(0.682462 0 0)
(0.71366 0 0)
(0.745654 0 0)
(0.778444 0 0)
(0.812031 0 0)
(0.846417 0 0)
(0.881602 0 0)
(0.917587 0 0)
(0.954372 0 0)
(0.991959 0 0)
(1.03035 0 0)
(1.06954 0 0)
(1.10953 0 0)
(1.15033 0 0)
(1.19194 0 0)
(1.23435 0 0)
(1.27756 0 0)
(1.32158 0 0)
(1.36641 0 0)
(1.41205 0 0)
(1.4585 0 0)
(1.50575 0 0)
(1.55382 0 0)
(1.60269 0 0)
(1.65238 0 0)
(1.70288 0 0)
(1.7542 0 0)
(1.80633 0 0)
(1.85927 0 0)
(1.91303 0 0)
(1.96761 0 0)
(2.023 0 0)
(2.07922 0 0)
(2.13625 0 0)
(2.19411 0 0)
(2.25279 0 0)
(2.31229 0 0)
(2.37262 0 0)
(2.43377 0 0)
(2.49575 0 0)
(2.55856 0 0)
(2.6222 0 0)
(2.68667 0 0)
(2.75197 0 0)
(2.81811 0 0)
(2.88508 0 0)
(2.95288 0 0)
(3.02153 0 0)
(3.09101 0 0)
(3.16133 0 0)
(3.2325 0 0)
(3.30451 0 0)
(3.37736 0 0)
(3.45106 0 0)
(3.52561 0 0)
(3.60101 0 0)
(3.67726 0 0)
(3.75436 0 0)
(3.83232 0 0)
(3.91113 0 0)
(3.9908 0 0)
(4.07134 0 0)
(4.15273 0 0)
(4.23498 0 0)
(4.31811 0 0)
(4.40209 0 0)
(4.48695 0 0)
(4.57267 0 0)
(4.65927 0 0)
(4.74674 0 0)
(4.83509 0 0)
(4.92431 0 0)
(5.01442 0 0)
(5.1054 0 0)
(5.19727 0 0)
(5.29003 0 0)
(5.38367 0 0)
(5.4782 0 0)
(5.57362 0 0)
(5.66993 0 0)
(5.76714 0 0)
(5.86525 0 0)
(5.96426 0 0)
(6.06416 0 0)
(6.16497 0 0)
(6.26669 0 0)
(6.36932 0 0)
(6.47285 0 0)
(6.5773 0 0)
(6.68266 0 0)
(6.78893 0 0)
(6.89613 0 0)
(7.00425 0 0)
(7.11329 0 0)
(7.22325 0 0)
(7.33415 0 0)
(7.44597 0 0)
(7.55873 0 0)
(7.67242 0 0)
(7.78705 0 0)
(7.90263 0 0)
(8.01914 0 0)
(8.1366 0 0)
(8.25501 0 0)
(8.37437 0 0)
(8.49468 0 0)
(8.61595 0 0)
(8.73818 0 0)
(8.86136 0 0)
(8.98552 0 0)
(9.11064 0 0)
(9.23673 0 0)
(9.36379 0 0)
(9.49183 0 0)
(9.62085 0 0)
(9.75085 0 0)
(9.88183 0 0)
(10.0138 0 0)
(10.1468 0 0)
(10.2807 0 0)
(10.4157 0 0)
(10.5516 0 0)
(10.6886 0 0)
(10.8265 0 0)
(10.9655 0 0)
(11.1055 0 0)
(11.2465 0 0)
(11.3885 0 0)
(11.5316 0 0)
(11.6757 0 0)
(11.8208 0 0)
(11.9669 0 0)
(12.1141 0 0)
(12.2623 0 0)
(12.4115 0 0)
(12.5618 0 0)
(12.7132 0 0)
(12.8656 0 0)
(13.0191 0 0)
(13.1736 0 0)
(13.3292 0 0)
(13.4859 0 0)
(13.6437 0 0)
(13.8025 0 0)
(13.9624 0 0)
(14.1234 0 0)
(14.2855 0 0)
(14.4487 0 0)
(14.6129 0 0)
(14.7783 0 0)
(14.9448 0 0)
(15.1124 0 0)
(15.2812 0 0)
(15.451 0 0)
(15.622 0 0)
(15.7941 0 0)
(15.9673 0 0)
(16.1417 0 0)
(16.3172 0 0)
(16.4939 0 0)
(16.6717 0 0)
(16.8507 0 0)
(17.0308 0 0)
(17.2121 0 0)
(17.3946 0 0)
(17.5783 0 0)
(17.7632 0 0)
(17.9492 0 0)
(18.1364 0 0)
(18.3249 0 0)
(18.5145 0 0)
(18.7054 0 0)
(18.8974 0 0)
(19.0907 0 0)
(19.2853 0 0)
(19.481 0 0)
(19.678 0 0)
(19.8763 0 0)
(20.0757 0 0)
(20.2765 0 0)
(20.4785 0 0)
(20.6818 0 0)
(20.8864 0 0)
(21.0922 0 0)
(21.2994 0 0)
(21.5078 0 0)
(21.7175 0 0)
(21.9286 0 0)
(22.141 0 0)
(22.3547 0 0)
(22.5697 0 0)
(22.7861 0 0)
(23.0038 0 0)
(23.2229 0 0)
(23.4432 0 0)
(23.6651 0 0)
(23.8882 0 0)
(24.1128 0 0)
(24.3387 0 0)
(24.5662 0 0)
(24.7947 0 0)
(25.0252 0 0)
(25.2564 0 0)
(25.4899 0 0)
(25.7238 0 0)
(25.9604 0 0)
(26.197 0 0)
(26.4368 0 0)
(26.6761 0 0)
(26.919 0 0)
(27.1612 0 0)
(27.4073 0 0)
(27.6523 0 0)
(27.9016 0 0)
(28.1496 0 0)
(28.402 0 0)
(28.6531 0 0)
(28.9086 0 0)
(29.1629 0 0)
(29.4214 0 0)
(29.6793 0 0)
(29.9405 0 0)
(30.2022 0 0)
(30.466 0 0)
(30.7318 0 0)
(30.998 0 0)
(31.2682 0 0)
(31.5366 0 0)
(31.8114 0 0)
(32.082 0 0)
(32.3615 0 0)
(32.6344 0 0)
(32.9185 0 0)
(33.1937 0 0)
(33.4827 0 0)
(33.7602 0 0)
(34.0541 0 0)
(34.334 0 0)
(34.6329 0 0)
(34.9151 0 0)
(35.2191 0 0)
(35.5038 0 0)
(35.813 0 0)
(36.1001 0 0)
(36.4146 0 0)
(36.7043 0 0)
(37.0241 0 0)
(37.3164 0 0)
(37.6417 0 0)
(37.9367 0 0)
(38.2676 0 0)
(38.5652 0 0)
(38.9019 0 0)
(39.2022 0 0)
(39.5447 0 0)
(39.8479 0 0)
(40.1963 0 0)
(40.5024 0 0)
(40.857 0 0)
(41.166 0 0)
(41.5268 0 0)
(41.8389 0 0)
(42.2059 0 0)
(42.5214 0 0)
(42.8946 0 0)
(43.2137 0 0)
(43.5931 0 0)
(43.9161 0 0)
(44.3018 0 0)
(44.6289 0 0)
(45.0208 0 0)
(45.3523 0 0)
(45.7505 0 0)
(46.0866 0 0)
(46.4913 0 0)
(46.8322 0 0)
(47.2435 0 0)
(47.5895 0 0)
(48.0075 0 0)
(48.3588 0 0)
(48.7837 0 0)
(49.1405 0 0)
(49.5726 0 0)
(49.935 0 0)
(50.3745 0 0)
(50.743 0 0)
(51.1902 0 0)
(51.5649 0 0)
(52.02 0 0)
(52.4013 0 0)
(52.8647 0 0)
(53.253 0 0)
(53.7248 0 0)
(54.1205 0 0)
(54.6013 0 0)
(55.0048 0 0)
(55.4948 0 0)
(55.9068 0 0)
(56.4065 0 0)
(56.8273 0 0)
(57.3372 0 0)
(57.7675 0 0)
(58.2882 0 0)
(58.7284 0 0)
(59.2604 0 0)
(59.711 0 0)
(60.2548 0 0)
(60.7161 0 0)
(61.2716 0 0)
(61.7433 0 0)
(62.3098 0 0)
(62.7905 0 0)
(63.3655 0 0)
(63.8512 0 0)
(64.4285 0 0)
(64.9098 0 0)
(65.4801 0 0)
(65.9362 0 0)
(66.4783 0 0)
(66.9095 0 0)
(67.4336 0 0)
(67.8544 0 0)
(68.3757 0 0)
(68.7984 0 0)
(69.3267 0 0)
(69.7566 0 0)
(70.2945 0 0)
(70.7318 0 0)
(71.2775 0 0)
(71.7204 0 0)
(72.2711 0 0)
(72.7175 0 0)
(73.2716 0 0)
(73.7202 0 0)
(74.2772 0 0)
(74.7279 0 0)
(75.2879 0 0)
(75.7409 0 0)
(76.3041 0 0)
(76.7596 0 0)
(77.3263 0 0)
(77.7844 0 0)
(78.3545 0 0)
(78.815 0 0)
(79.3883 0 0)
(79.851 0 0)
(80.4272 0 0)
(80.8919 0 0)
(81.471 0 0)
(81.9375 0 0)
(82.5192 0 0)
(82.9874 0 0)
(83.5716 0 0)
(84.0413 0 0)
(84.6279 0 0)
(85.0988 0 0)
(85.6876 0 0)
(86.1595 0 0)
(86.7501 0 0)
(87.2228 0 0)
(87.8151 0 0)
(88.288 0 0)
(88.8818 0 0)
(89.3547 0 0)
(89.9496 0 0)
(90.4222 0 0)
(91.0181 0 0)
(91.49 0 0)
(92.0865 0 0)
(92.5575 0 0)
(93.1544 0 0)
(93.624 0 0)
(94.2209 0 0)
(94.6887 0 0)
(95.2851 0 0)
(95.7503 0 0)
(96.3455 0 0)
(96.8072 0 0)
(97.4003 0 0)
(97.8573 0 0)
(98.4469 0 0)
(98.8975 0 0)
(99.4821 0 0)
(99.9242 0 0)
(100.501 0 0)
(100.933 0 0)
(101.5 0 0)
(101.918 0 0)
(102.473 0 0)
(102.873 0 0)
(103.413 0 0)
(103.794 0 0)
(104.316 0 0)
(104.677 0 0)
(105.184 0 0)
(105.528 0 0)
(106.017 0 0)
(106.328 0 0)
(106.787 0 0)
(107.038 0 0)
(107.458 0 0)
(107.63 0 0)
(108.005 0 0)
(108.082 0 0)
(108.401 0 0)
(108.363 0 0)
(108.606 0 0)
(108.414 0 0)
(108.56 0 0)
(108.173 0 0)
(108.231 0 0)
(107.688 0 0)
(107.722 0 0)
(107.227 0 0)
(108.329 0 0)
)
;

boundaryField
{
    sideLeft
    {
        type            symmetryPlane;
    }
    sideRight
    {
        type            calculated;
        value           uniform (108.329 0 0);
    }
    topbottom
    {
        type            empty;
    }
    frontback
    {
        type            empty;
    }
}


// ************************************************************************* //
