/*--------------------------------*- C++ -*----------------------------------*\
| =========                 |                                                 |
| \\      /  F ield         | OpenFOAM: The Open Source CFD Toolbox           |
|  \\    /   O peration     | Version:  2.4.0                                 |
|   \\  /    A nd           | Web:      www.OpenFOAM.org                      |
|    \\/     M anipulation  |                                                 |
\*---------------------------------------------------------------------------*/
FoamFile
{
    version     2.0;
    format      ascii;
    class       volVectorField;
    location    "0.15";
    object      Ur;
}
// * * * * * * * * * * * * * * * * * * * * * * * * * * * * * * * * * * * * * //

dimensions      [0 1 -1 0 0 0 0];

internalField   nonuniform List<vector> 
1000
(
(-3.55271e-14 0 0)
(-3.55271e-14 0 0)
(-7.10543e-15 0 0)
(-7.10543e-15 0 0)
(-4.26326e-14 0 0)
(-3.55271e-14 0 0)
(3.55271e-14 0 0)
(2.84217e-14 0 0)
(-7.10543e-15 0 0)
(-1.42109e-14 0 0)
(1.42109e-14 0 0)
(7.81597e-14 0 0)
(2.84217e-14 0 0)
(-2.84217e-14 0 0)
(-7.10543e-15 0 0)
(-7.10542e-15 0 0)
(3.55271e-14 0 0)
(-2.84217e-14 0 0)
(-2.13163e-14 0 0)
(4.26326e-14 0 0)
(-9.23706e-14 0 0)
(-3.55271e-14 0 0)
(7.10543e-15 0 0)
(3.55271e-14 0 0)
(6.39488e-14 0 0)
(-4.9738e-14 0 0)
(-1.42109e-14 0 0)
(2.84217e-14 0 0)
(4.9738e-14 0 0)
(3.55271e-14 0 0)
(4.26326e-14 0 0)
(-5.68434e-14 0 0)
(-6.39488e-14 0 0)
(2.84217e-14 0 0)
(2.13163e-14 0 0)
(-1.59738e-22 0 0)
(-2.13163e-14 0 0)
(7.10543e-15 0 0)
(1.42109e-14 0 0)
(-2.84217e-14 0 0)
(-2.13163e-14 0 0)
(4.9738e-14 0 0)
(7.10543e-15 0 0)
(2.84217e-14 0 0)
(-3.55271e-14 0 0)
(-2.13163e-14 0 0)
(4.9738e-14 0 0)
(1.54057e-22 0 0)
(-7.10543e-15 0 0)
(7.10543e-15 0 0)
(-3.55271e-14 0 0)
(-2.13163e-14 0 0)
(2.84217e-14 0 0)
(-1.42109e-14 0 0)
(2.84217e-14 0 0)
(2.84217e-14 0 0)
(-3.55271e-14 0 0)
(-4.9738e-14 0 0)
(2.84217e-14 0 0)
(1.42109e-14 0 0)
(7.10543e-15 0 0)
(3.55271e-14 0 0)
(-2.13163e-14 0 0)
(-2.13163e-14 0 0)
(1.42109e-14 0 0)
(1.42109e-14 0 0)
(1.42109e-14 0 0)
(-8.32109e-22 0 0)
(-1.42109e-14 0 0)
(4.9738e-14 0 0)
(7.10543e-15 0 0)
(-5.68434e-14 0 0)
(-7.10543e-15 0 0)
(-2.13163e-14 0 0)
(2.4345e-21 0 0)
(2.13163e-14 0 0)
(2.84217e-14 0 0)
(-7.10543e-15 0 0)
(-2.84217e-14 0 0)
(-1.42109e-14 0 0)
(-7.10543e-15 0 0)
(2.84217e-14 0 0)
(2.84217e-14 0 0)
(2.13163e-14 0 0)
(7.10542e-15 0 0)
(-4.26326e-14 0 0)
(-3.55271e-14 0 0)
(7.10543e-15 0 0)
(-4.9738e-14 0 0)
(7.10543e-15 0 0)
(7.81597e-14 0 0)
(-4.9738e-14 0 0)
(-7.10543e-15 0 0)
(7.10543e-15 0 0)
(-4.9738e-14 0 0)
(5.68434e-14 0 0)
(4.26326e-14 0 0)
(4.26326e-14 0 0)
(-7.10543e-15 0 0)
(-4.9738e-14 0 0)
(-1.42109e-14 0 0)
(7.10543e-15 0 0)
(-1.42109e-14 0 0)
(-2.84217e-14 0 0)
(3.55271e-14 0 0)
(6.39488e-14 0 0)
(-4.26326e-14 0 0)
(-3.55271e-14 0 0)
(5.68434e-14 0 0)
(-2.13163e-14 0 0)
(-2.13163e-14 0 0)
(9.9476e-14 0 0)
(-1.42109e-14 0 0)
(-9.23706e-14 0 0)
(-5.68434e-14 0 0)
(-1.42109e-14 0 0)
(6.39488e-14 0 0)
(7.10543e-15 0 0)
(-4.30257e-22 0 0)
(-1.41926e-21 0 0)
(2.84217e-14 0 0)
(3.55271e-14 0 0)
(-1.13687e-13 0 0)
(-8.52651e-14 0 0)
(5.68434e-14 0 0)
(-7.10543e-15 0 0)
(-7.10542e-15 0 0)
(3.55271e-14 0 0)
(3.55271e-14 0 0)
(3.55271e-14 0 0)
(-2.84217e-14 0 0)
(-1.42109e-14 0 0)
(3.55271e-14 0 0)
(5.68434e-14 0 0)
(-7.81597e-14 0 0)
(-7.81597e-14 0 0)
(8.52651e-14 0 0)
(2.84217e-14 0 0)
(-7.10543e-15 0 0)
(4.9738e-14 0 0)
(6.40457e-22 0 0)
(-7.10543e-14 0 0)
(2.84217e-14 0 0)
(4.9738e-14 0 0)
(-2.13163e-14 0 0)
(-4.26326e-14 0 0)
(3.55271e-14 0 0)
(2.84217e-14 0 0)
(-8.52651e-14 0 0)
(-2.84217e-14 0 0)
(4.9738e-14 0 0)
(-7.10543e-15 0 0)
(-1.42109e-14 0 0)
(4.26326e-14 0 0)
(-7.10543e-15 0 0)
(-3.55271e-14 0 0)
(-2.84217e-14 0 0)
(-5.68434e-14 0 0)
(-3.52895e-22 0 0)
(7.10543e-14 0 0)
(4.9738e-14 0 0)
(2.13163e-14 0 0)
(-2.13163e-14 0 0)
(-7.10542e-15 0 0)
(2.13163e-14 0 0)
(-3.55271e-14 0 0)
(-1.42109e-14 0 0)
(3.16635e-22 0 0)
(-4.26326e-14 0 0)
(5.68434e-14 0 0)
(8.52651e-14 0 0)
(-7.10543e-15 0 0)
(-7.10543e-15 0 0)
(-4.9738e-14 0 0)
(-3.55271e-14 0 0)
(2.13163e-14 0 0)
(-4.9738e-14 0 0)
(-1.71317e-21 0 0)
(6.39488e-14 0 0)
(2.13163e-14 0 0)
(-7.10543e-15 0 0)
(1.42109e-14 0 0)
(7.10543e-15 0 0)
(7.10543e-15 0 0)
(3.55271e-14 0 0)
(4.26326e-14 0 0)
(-4.26326e-14 0 0)
(-4.9738e-14 0 0)
(-2.84217e-14 0 0)
(-4.26326e-14 0 0)
(7.10543e-15 0 0)
(-7.10543e-15 0 0)
(1.42109e-14 0 0)
(7.10543e-15 0 0)
(-2.13163e-14 0 0)
(-2.84217e-14 0 0)
(2.13163e-14 0 0)
(-7.10543e-15 0 0)
(9.37876e-22 0 0)
(2.13163e-14 0 0)
(1.42109e-14 0 0)
(1.09828e-21 0 0)
(1.42109e-14 0 0)
(2.84217e-14 0 0)
(-2.84217e-14 0 0)
(-3.55271e-14 0 0)
(-3.55271e-14 0 0)
(-7.10543e-15 0 0)
(2.13163e-14 0 0)
(4.9738e-14 0 0)
(2.13163e-14 0 0)
(-2.84217e-14 0 0)
(-7.10543e-15 0 0)
(1.42109e-14 0 0)
(-1.06581e-13 0 0)
(7.10543e-15 0 0)
(1.27898e-13 0 0)
(-4.9738e-14 0 0)
(-5.68434e-14 0 0)
(3.55271e-14 0 0)
(4.26326e-14 0 0)
(1.42109e-14 0 0)
(-4.41619e-22 0 0)
(2.59157e-22 0 0)
(-7.10543e-15 0 0)
(7.10543e-15 0 0)
(-3.55271e-14 0 0)
(-1.42109e-14 0 0)
(1.42109e-14 0 0)
(2.84217e-14 0 0)
(-1.42109e-14 0 0)
(-2.84217e-14 0 0)
(7.10543e-15 0 0)
(2.13163e-14 0 0)
(7.10543e-15 0 0)
(-1.42109e-14 0 0)
(-7.10543e-15 0 0)
(2.13163e-14 0 0)
(2.84217e-14 0 0)
(-4.26326e-14 0 0)
(4.26326e-14 0 0)
(5.68434e-14 0 0)
(-3.55271e-14 0 0)
(1.42109e-14 0 0)
(7.10543e-14 0 0)
(-2.84217e-14 0 0)
(-2.13163e-14 0 0)
(-7.10543e-15 0 0)
(-3.55271e-14 0 0)
(4.9738e-14 0 0)
(-1.42109e-14 0 0)
(-1.13687e-13 0 0)
(6.39488e-14 0 0)
(1.27898e-13 0 0)
(-7.10543e-15 0 0)
(-4.26326e-14 0 0)
(-1.42109e-14 0 0)
(2.84217e-14 0 0)
(-1.42109e-14 0 0)
(-2.84217e-14 0 0)
(2.13163e-14 0 0)
(2.84217e-14 0 0)
(1.42109e-14 0 0)
(-1.42109e-14 0 0)
(-4.26326e-14 0 0)
(-7.10543e-15 0 0)
(-1.42109e-14 0 0)
(-4.26326e-14 0 0)
(2.84217e-14 0 0)
(7.10543e-14 0 0)
(-5.68434e-14 0 0)
(-8.52651e-14 0 0)
(5.68434e-14 0 0)
(-7.10543e-15 0 0)
(-4.26326e-14 0 0)
(3.55271e-14 0 0)
(2.84217e-14 0 0)
(7.10542e-15 0 0)
(-7.10543e-15 0 0)
(2.13163e-14 0 0)
(-1.94393e-21 0 0)
(-2.84217e-14 0 0)
(-2.13163e-14 0 0)
(2.13163e-14 0 0)
(2.72273e-21 0 0)
(-3.55271e-14 0 0)
(3.55271e-14 0 0)
(2.84217e-14 0 0)
(8.23587e-22 0 0)
(1.42109e-14 0 0)
(1.76781e-21 0 0)
(-3.55271e-14 0 0)
(-2.13163e-14 0 0)
(1.42109e-14 0 0)
(1.42109e-14 0 0)
(-2.13163e-14 0 0)
(-1.3561e-21 0 0)
(4.9738e-14 0 0)
(-7.10543e-15 0 0)
(-2.13163e-14 0 0)
(-1.42109e-14 0 0)
(-7.10543e-15 0 0)
(1.42109e-14 0 0)
(-1.42109e-14 0 0)
(1.42109e-14 0 0)
(7.10543e-15 0 0)
(-2.84217e-14 0 0)
(-1.42109e-14 0 0)
(-7.10542e-15 0 0)
(1.42109e-14 0 0)
(1.42109e-14 0 0)
(-7.10543e-15 0 0)
(-1.42109e-14 0 0)
(-2.13163e-14 0 0)
(2.13163e-14 0 0)
(7.10543e-15 0 0)
(7.10543e-15 0 0)
(2.13163e-14 0 0)
(-7.10543e-15 0 0)
(-2.84217e-14 0 0)
(-1.42109e-14 0 0)
(2.84217e-14 0 0)
(-7.10543e-15 0 0)
(-2.13163e-14 0 0)
(2.13163e-14 0 0)
(3.55271e-14 0 0)
(-1.42109e-14 0 0)
(-1.42109e-14 0 0)
(-2.13163e-14 0 0)
(-4.9738e-14 0 0)
(1.48677e-21 0 0)
(-1.42109e-14 0 0)
(1.06921e-21 0 0)
(2.13163e-14 0 0)
(-1.42109e-14 0 0)
(-7.10542e-15 0 0)
(1.42109e-14 0 0)
(7.10543e-15 0 0)
(-4.9738e-14 0 0)
(3.55271e-14 0 0)
(-7.10543e-15 0 0)
(-3.55271e-14 0 0)
(8.52651e-14 0 0)
(3.55271e-14 0 0)
(-4.9738e-14 0 0)
(-6.39488e-14 0 0)
(1.42109e-14 0 0)
(2.13163e-14 0 0)
(4.26326e-14 0 0)
(3.55271e-14 0 0)
(-7.10543e-14 0 0)
(1.42109e-14 0 0)
(4.9738e-14 0 0)
(-2.84217e-14 0 0)
(4.26326e-14 0 0)
(-7.10543e-15 0 0)
(-8.52651e-14 0 0)
(2.13163e-14 0 0)
(9.23706e-14 0 0)
(6.39488e-14 0 0)
(-3.55271e-14 0 0)
(-8.52651e-14 0 0)
(-7.81597e-14 0 0)
(2.13163e-14 0 0)
(7.81597e-14 0 0)
(-7.10543e-15 0 0)
(2.13163e-14 0 0)
(-2.51972e-21 0 0)
(-2.13163e-14 0 0)
(-4.26326e-14 0 0)
(-6.39488e-14 0 0)
(2.13163e-14 0 0)
(2.84217e-14 0 0)
(4.9738e-14 0 0)
(4.26326e-14 0 0)
(3.55271e-14 0 0)
(-7.10543e-15 0 0)
(-7.10543e-15 0 0)
(3.55271e-14 0 0)
(-2.84217e-14 0 0)
(-2.84217e-14 0 0)
(-1.42109e-14 0 0)
(2.99592e-22 0 0)
(7.10543e-15 0 0)
(-2.13163e-14 0 0)
(3.55271e-14 0 0)
(1.42109e-14 0 0)
(-5.68434e-14 0 0)
(-2.84217e-14 0 0)
(-7.10543e-15 0 0)
(1.17648e-21 0 0)
(-4.26326e-14 0 0)
(2.13163e-14 0 0)
(9.23706e-14 0 0)
(2.13163e-14 0 0)
(-2.13163e-14 0 0)
(1.42109e-14 0 0)
(-2.13163e-14 0 0)
(-6.39488e-14 0 0)
(-4.26326e-14 0 0)
(2.84217e-14 0 0)
(1.42109e-14 0 0)
(2.13163e-14 0 0)
(3.55271e-14 0 0)
(1.31416e-21 0 0)
(-2.13163e-14 0 0)
(-7.10543e-15 0 0)
(1.42109e-14 0 0)
(3.55271e-14 0 0)
(2.84217e-14 0 0)
(-7.81597e-14 0 0)
(-2.84217e-14 0 0)
(7.10543e-14 0 0)
(2.13163e-14 0 0)
(-6.39488e-14 0 0)
(1.42109e-14 0 0)
(4.9738e-14 0 0)
(1.42109e-14 0 0)
(-3.55271e-14 0 0)
(-8.52651e-14 0 0)
(-2.96752e-22 0 0)
(9.23706e-14 0 0)
(7.10543e-14 0 0)
(-3.55271e-14 0 0)
(-3.55271e-14 0 0)
(-7.15646e-22 0 0)
(-3.70606e-22 0 0)
(-1.29779e-21 0 0)
(-7.10543e-15 0 0)
(1.98838e-22 0 0)
(7.10543e-15 0 0)
(7.10543e-15 0 0)
(-1.42109e-14 0 0)
(-2.13163e-14 0 0)
(-2.13163e-14 0 0)
(-7.10543e-15 0 0)
(-5.68434e-14 0 0)
(-1.42109e-14 0 0)
(8.52651e-14 0 0)
(4.9738e-14 0 0)
(-2.84217e-14 0 0)
(-1.42109e-14 0 0)
(2.13163e-14 0 0)
(-2.84217e-14 0 0)
(2.13163e-14 0 0)
(2.13163e-14 0 0)
(-1.42108e-14 0 0)
(1.42109e-14 0 0)
(-7.10541e-15 0 0)
(1.42109e-14 0 0)
(1.13687e-13 0 0)
(9.23706e-14 0 0)
(7.10544e-14 0 0)
(1.42109e-13 0 0)
(2.55796e-13 0 0)
(3.62377e-13 0 0)
(5.11591e-13 0 0)
(8.31336e-13 0 0)
(1.19371e-12 0 0)
(1.8332e-12 0 0)
(2.67164e-12 0 0)
(3.94352e-12 0 0)
(5.84777e-12 0 0)
(8.44836e-12 0 0)
(1.22995e-11 0 0)
(1.7991e-11 0 0)
(2.59775e-11 0 0)
(3.73391e-11 0 0)
(5.37313e-11 0 0)
(7.703e-11 0 0)
(1.10006e-10 0 0)
(1.5644e-10 0 0)
(2.21718e-10 0 0)
(3.13222e-10 0 0)
(4.4075e-10 0 0)
(6.17981e-10 0 0)
(8.63403e-10 0 0)
(1.20171e-09 0 0)
(1.66652e-09 0 0)
(2.30243e-09 0 0)
(3.16901e-09 0 0)
(4.34547e-09 0 0)
(5.93573e-09 0 0)
(8.0767e-09 0 0)
(1.09475e-08 0 0)
(1.47805e-08 0 0)
(1.98771e-08 0 0)
(2.66253e-08 0 0)
(3.55215e-08 0 0)
(4.71992e-08 0 0)
(6.24607e-08 0 0)
(8.23179e-08 0 0)
(1.08039e-07 0 0)
(1.41205e-07 0 0)
(1.83775e-07 0 0)
(2.38162e-07 0 0)
(3.0732e-07 0 0)
(3.94843e-07 0 0)
(5.05075e-07 0 0)
(6.43229e-07 0 0)
(8.1552e-07 0 0)
(1.0293e-06 0 0)
(1.29322e-06 0 0)
(1.61733e-06 0 0)
(2.01327e-06 0 0)
(2.49437e-06 0 0)
(3.07576e-06 0 0)
(3.77446e-06 0 0)
(4.60937e-06 0 0)
(5.60131e-06 0 0)
(6.7729e-06 0 0)
(8.14836e-06 0 0)
(9.75329e-06 0 0)
(1.16142e-05 0 0)
(1.37582e-05 0 0)
(1.6212e-05 0 0)
(1.90015e-05 0 0)
(2.21508e-05 0 0)
(2.5681e-05 0 0)
(2.96094e-05 0 0)
(3.3948e-05 0 0)
(3.87025e-05 0 0)
(4.38712e-05 0 0)
(4.94434e-05 0 0)
(5.5399e-05 0 0)
(6.17074e-05 0 0)
(6.83269e-05 0 0)
(7.52049e-05 0 0)
(8.22774e-05 0 0)
(8.94702e-05 0 0)
(9.66997e-05 0 0)
(0.000103874 0 0)
(0.000110895 0 0)
(0.000117661 0 0)
(0.000124069 0 0)
(0.000130015 0 0)
(0.000135401 0 0)
(0.000140135 0 0)
(0.000144133 0 0)
(0.000147323 0 0)
(0.000149647 0 0)
(0.00015106 0 0)
(0.000151536 0 0)
(0.000151061 0 0)
(0.000149641 0 0)
(0.000147296 0 0)
(0.000144062 0 0)
(0.000139988 0 0)
(0.000135135 0 0)
(0.000129573 0 0)
(0.00012338 0 0)
(0.000116642 0 0)
(0.000109446 0 0)
(0.00010188 0 0)
(9.4035e-05 0 0)
(8.59964e-05 0 0)
(7.78479e-05 0 0)
(6.96677e-05 0 0)
(6.15286e-05 0 0)
(5.34966e-05 0 0)
(4.56309e-05 0 0)
(3.79831e-05 0 0)
(3.05977e-05 0 0)
(2.35118e-05 0 0)
(1.67553e-05 0 0)
(1.03517e-05 0 0)
(4.31783e-06 0 0)
(-1.33513e-06 0 0)
(-6.60129e-06 0 0)
(-1.14795e-05 0 0)
(-1.59728e-05 0 0)
(-2.00877e-05 0 0)
(-2.38341e-05 0 0)
(-2.72242e-05 0 0)
(-3.02722e-05 0 0)
(-3.29941e-05 0 0)
(-3.54072e-05 0 0)
(-3.75294e-05 0 0)
(-3.93792e-05 0 0)
(-4.09755e-05 0 0)
(-4.23371e-05 0 0)
(-4.34825e-05 0 0)
(-4.44298e-05 0 0)
(-4.51967e-05 0 0)
(-4.57998e-05 0 0)
(-4.62553e-05 0 0)
(-4.65784e-05 0 0)
(-4.67833e-05 0 0)
(-4.68833e-05 0 0)
(-4.68909e-05 0 0)
(-4.68174e-05 0 0)
(-4.66732e-05 0 0)
(-4.6468e-05 0 0)
(-4.62104e-05 0 0)
(-4.59082e-05 0 0)
(-4.55685e-05 0 0)
(-4.51974e-05 0 0)
(-4.48006e-05 0 0)
(-4.43829e-05 0 0)
(-4.39487e-05 0 0)
(-4.35018e-05 0 0)
(-4.30454e-05 0 0)
(-4.25825e-05 0 0)
(-4.21153e-05 0 0)
(-4.16461e-05 0 0)
(-4.11765e-05 0 0)
(-4.07081e-05 0 0)
(-4.02422e-05 0 0)
(-3.97798e-05 0 0)
(-3.93217e-05 0 0)
(-3.88687e-05 0 0)
(-3.84214e-05 0 0)
(-3.79801e-05 0 0)
(-3.75453e-05 0 0)
(-3.71172e-05 0 0)
(-3.66961e-05 0 0)
(-3.6282e-05 0 0)
(-3.58751e-05 0 0)
(-3.54754e-05 0 0)
(-3.50829e-05 0 0)
(-3.46976e-05 0 0)
(-3.43196e-05 0 0)
(-3.39486e-05 0 0)
(-3.35847e-05 0 0)
(-3.32278e-05 0 0)
(-3.28777e-05 0 0)
(-3.25344e-05 0 0)
(-3.21978e-05 0 0)
(-3.18676e-05 0 0)
(-3.15439e-05 0 0)
(-3.12264e-05 0 0)
(-3.0915e-05 0 0)
(-3.06096e-05 0 0)
(-3.03101e-05 0 0)
(-3.00163e-05 0 0)
(-2.9728e-05 0 0)
(-2.94451e-05 0 0)
(-2.91675e-05 0 0)
(-2.88949e-05 0 0)
(-2.86273e-05 0 0)
(-2.83644e-05 0 0)
(-2.81062e-05 0 0)
(-2.78523e-05 0 0)
(-2.76027e-05 0 0)
(-2.73571e-05 0 0)
(-2.71155e-05 0 0)
(-2.68775e-05 0 0)
(-2.66431e-05 0 0)
(-2.6412e-05 0 0)
(-2.6184e-05 0 0)
(-2.59591e-05 0 0)
(-2.57369e-05 0 0)
(-2.55174e-05 0 0)
(-2.53004e-05 0 0)
(-2.50857e-05 0 0)
(-2.48731e-05 0 0)
(-2.46626e-05 0 0)
(-2.4454e-05 0 0)
(-2.42471e-05 0 0)
(-2.4042e-05 0 0)
(-2.38384e-05 0 0)
(-2.36363e-05 0 0)
(-2.34356e-05 0 0)
(-2.32362e-05 0 0)
(-2.30382e-05 0 0)
(-2.28415e-05 0 0)
(-2.2646e-05 0 0)
(-2.24518e-05 0 0)
(-2.22588e-05 0 0)
(-2.2067e-05 0 0)
(-2.18765e-05 0 0)
(-2.16873e-05 0 0)
(-2.14994e-05 0 0)
(-2.13128e-05 0 0)
(-2.11276e-05 0 0)
(-2.09438e-05 0 0)
(-2.07614e-05 0 0)
(-2.05805e-05 0 0)
(-2.04011e-05 0 0)
(-2.02233e-05 0 0)
(-2.00471e-05 0 0)
(-1.98725e-05 0 0)
(-1.96996e-05 0 0)
(-1.95284e-05 0 0)
(-1.9359e-05 0 0)
(-1.91913e-05 0 0)
(-1.90253e-05 0 0)
(-1.88612e-05 0 0)
(-1.8699e-05 0 0)
(-1.85385e-05 0 0)
(-1.838e-05 0 0)
(-1.82232e-05 0 0)
(-1.80684e-05 0 0)
(-1.79154e-05 0 0)
(-1.77642e-05 0 0)
(-1.76149e-05 0 0)
(-1.74674e-05 0 0)
(-1.73216e-05 0 0)
(-1.71777e-05 0 0)
(-1.70355e-05 0 0)
(-1.6895e-05 0 0)
(-1.67561e-05 0 0)
(-1.66189e-05 0 0)
(-1.64833e-05 0 0)
(-1.63493e-05 0 0)
(-1.62167e-05 0 0)
(-1.60856e-05 0 0)
(-1.59559e-05 0 0)
(-1.58276e-05 0 0)
(-1.57006e-05 0 0)
(-1.55749e-05 0 0)
(-1.54504e-05 0 0)
(-1.5327e-05 0 0)
(-1.52048e-05 0 0)
(-1.50836e-05 0 0)
(-1.49635e-05 0 0)
(-1.48443e-05 0 0)
(-1.47261e-05 0 0)
(-1.46089e-05 0 0)
(-1.44925e-05 0 0)
(-1.4377e-05 0 0)
(-1.42624e-05 0 0)
(-1.41487e-05 0 0)
(-1.40357e-05 0 0)
(-1.39236e-05 0 0)
(-1.38123e-05 0 0)
(-1.37019e-05 0 0)
(-1.35923e-05 0 0)
(-1.34835e-05 0 0)
(-1.33755e-05 0 0)
(-1.32683e-05 0 0)
(-1.31619e-05 0 0)
(-1.30564e-05 0 0)
(-1.29517e-05 0 0)
(-1.28478e-05 0 0)
(-1.27447e-05 0 0)
(-1.26424e-05 0 0)
(-1.25409e-05 0 0)
(-1.24403e-05 0 0)
(-1.23404e-05 0 0)
(-1.22414e-05 0 0)
(-1.21432e-05 0 0)
(-1.20458e-05 0 0)
(-1.19492e-05 0 0)
(-1.18535e-05 0 0)
(-1.17586e-05 0 0)
(-1.16646e-05 0 0)
(-1.15714e-05 0 0)
(-1.1479e-05 0 0)
(-1.13875e-05 0 0)
(-1.12968e-05 0 0)
(-1.12069e-05 0 0)
(-1.11178e-05 0 0)
(-1.10294e-05 0 0)
(-1.09417e-05 0 0)
(-1.08548e-05 0 0)
(-1.07684e-05 0 0)
(-1.06827e-05 0 0)
(-1.05975e-05 0 0)
(-1.05132e-05 0 0)
(-1.04293e-05 0 0)
(-1.0347e-05 0 0)
(-1.02645e-05 0 0)
(-1.01849e-05 0 0)
(-1.01035e-05 0 0)
(-1.00279e-05 0 0)
(-9.94562e-06 0 0)
(-9.87534e-06 0 0)
(-9.78799e-06 0 0)
(-9.72582e-06 0 0)
(-9.6264e-06 0 0)
(-9.57766e-06 0 0)
(-9.45793e-06 0 0)
(-9.42997e-06 0 0)
(-9.28506e-06 0 0)
(-9.28122e-06 0 0)
(-9.12003e-06 0 0)
(-9.12597e-06 0 0)
(-8.98563e-06 0 0)
(-8.9527e-06 0 0)
(-8.90282e-06 0 0)
(-8.75034e-06 0 0)
(-8.86509e-06 0 0)
(-8.53576e-06 0 0)
(-8.81978e-06 0 0)
(-8.36212e-06 0 0)
(-8.69722e-06 0 0)
(-8.34625e-06 0 0)
(-6.2688e-06 0 0)
(-9.60396e-06 0 0)
(-1.10386e-05 0 0)
(-6.2545e-06 0 0)
(-8.27897e-06 0 0)
(-7.2922e-06 0 0)
(-9.87131e-06 0 0)
(-6.16149e-06 0 0)
(-9.11862e-06 0 0)
(-6.26891e-06 0 0)
(-1.0285e-05 0 0)
(-5.16502e-06 0 0)
(-1.10419e-05 0 0)
(-4.09993e-06 0 0)
(-1.09967e-05 0 0)
(-3.29049e-06 0 0)
(-2.70195e-06 0 0)
(-1.05566e-05 0 0)
(2.11446e-06 0 0)
(-1.79102e-05 0 0)
(-6.20816e-06 0 0)
(-1.10583e-05 0 0)
(-4.63857e-06 0 0)
(-6.2372e-06 0 0)
(-7.71832e-05 0 0)
(6.73991e-05 0 0)
(-6.08364e-06 0 0)
(-1.60479e-05 0 0)
(-2.44084e-06 0 0)
(-3.53182e-06 0 0)
(-1.49085e-05 0 0)
(-2.41821e-06 0 0)
(-4.8945e-07 0 0)
(-9.85543e-06 0 0)
(-1.15963e-05 0 0)
(-1.83358e-06 0 0)
(-4.32683e-06 0 0)
(-7.69059e-06 0 0)
(-6.77973e-06 0 0)
(-5.30813e-06 0 0)
(-4.49043e-06 0 0)
(-7.4378e-06 0 0)
(-6.80515e-06 0 0)
(-4.71154e-06 0 0)
(-5.86312e-06 0 0)
(-5.90124e-06 0 0)
(-5.94997e-06 0 0)
(-5.15678e-06 0 0)
(-5.83301e-06 0 0)
(-4.8432e-06 0 0)
(-4.79146e-06 0 0)
(-5.3554e-06 0 0)
(-4.12944e-06 0 0)
(-7.40517e-06 0 0)
(-1.60663e-06 0 0)
(-8.36182e-06 0 0)
(4.57934e-06 0 0)
(-1.10034e-05 0 0)
(-6.95607e-06 0 0)
(-3.70642e-06 0 0)
(-1.05823e-05 0 0)
(-7.01938e-07 0 0)
(-6.30255e-07 0 0)
(-9.10509e-06 0 0)
(-5.82208e-06 0 0)
(-3.38345e-06 0 0)
(-2.673e-06 0 0)
(-5.05421e-06 0 0)
(-5.76181e-06 0 0)
(-3.85583e-06 0 0)
(-4.26927e-06 0 0)
(-4.54074e-06 0 0)
(-7.56089e-06 0 0)
(-1.1471e-06 0 0)
(-9.50925e-06 0 0)
(1.65356e-07 0 0)
(-7.16787e-06 0 0)
(-6.79703e-07 0 0)
(-3.24011e-06 0 0)
(-2.75153e-06 0 0)
(-3.53099e-06 0 0)
(-3.83066e-06 0 0)
(-2.24086e-06 0 0)
(-4.60711e-06 0 0)
(-1.55134e-06 0 0)
(-4.36875e-06 0 0)
(-3.54112e-06 0 0)
(-2.98744e-06 0 0)
(-4.38011e-06 0 0)
(-1.41743e-06 0 0)
(-5.79754e-06 0 0)
(-2.24347e-07 0 0)
(-3.03619e-06 0 0)
(-6.35672e-07 0 0)
(-1.34944e-06 0 0)
(-1.3308e-06 0 0)
(-6.31493e-07 0 0)
(-1.61085e-06 0 0)
(-7.22872e-07 0 0)
(-9.50791e-07 0 0)
(-1.28356e-06 0 0)
(5.70864e-07 0 0)
(-1.11152e-06 0 0)
(1.9287e-06 0 0)
(6.12958e-07 0 0)
(1.93179e-06 0 0)
(2.52545e-07 0 0)
(3.1495e-07 0 0)
(-4.35133e-06 0 0)
(-9.98344e-06 0 0)
(-2.2201e-05 0 0)
(-3.33433e-05 0 0)
(-2.06175e-07 0 0)
(-8.12674e-06 0 0)
(-1.61291e-05 0 0)
(-1.00235e-05 0 0)
(-7.32398e-06 0 0)
(-5.93524e-06 0 0)
(-7.84026e-07 0 0)
(-7.38225e-07 0 0)
(3.89172e-06 0 0)
(2.90417e-06 0 0)
(7.18653e-06 0 0)
(6.8592e-06 0 0)
(6.73354e-06 0 0)
(8.58718e-06 0 0)
(6.40141e-06 0 0)
(1.02167e-05 0 0)
(5.16592e-06 0 0)
(7.23125e-06 0 0)
(4.9363e-06 0 0)
(6.74892e-06 0 0)
(8.38512e-06 0 0)
(6.76353e-06 0 0)
(9.08211e-06 0 0)
(7.30893e-06 0 0)
(1.05972e-05 0 0)
(9.62943e-06 0 0)
(1.18713e-05 0 0)
(1.10698e-05 0 0)
(1.27266e-05 0 0)
(1.20541e-05 0 0)
(1.33276e-05 0 0)
(1.38473e-05 0 0)
(1.2718e-05 0 0)
(1.52148e-05 0 0)
(1.30808e-05 0 0)
(1.85897e-05 0 0)
(1.64691e-05 0 0)
(2.0723e-05 0 0)
(1.81775e-05 0 0)
(1.96509e-05 0 0)
(1.97943e-05 0 0)
(2.15542e-05 0 0)
(2.59479e-05 0 0)
(2.62581e-05 0 0)
(2.9767e-05 0 0)
(2.48772e-05 0 0)
(2.79637e-05 0 0)
(2.36106e-05 0 0)
(3.2257e-05 0 0)
(3.33522e-05 0 0)
(4.05272e-05 0 0)
(3.89552e-05 0 0)
(3.08422e-05 0 0)
(3.31729e-05 0 0)
(3.30374e-05 0 0)
(5.28456e-05 0 0)
(5.13932e-05 0 0)
(4.95108e-05 0 0)
(3.88974e-05 0 0)
(5.26457e-05 0 0)
(6.27672e-05 0 0)
(6.30515e-05 0 0)
(6.02904e-05 0 0)
(5.11059e-05 0 0)
(8.81515e-05 0 0)
(7.43783e-05 0 0)
(7.90485e-05 0 0)
(7.66911e-05 0 0)
(8.67616e-05 0 0)
(0.000117563 0 0)
(9.83817e-05 0 0)
(9.56899e-05 0 0)
(0.00011313 0 0)
(0.000132015 0 0)
(0.000156139 0 0)
(0.00019563 0 0)
(5.29042e-05 0 0)
(0.000126189 0 0)
(0.000220909 0 0)
(-0.000189563 0 0)
(-7.7049e-05 0 0)
(0.0043712 0 0)
(-0.00904587 0 0)
(0.000595107 0 0)
(0.0102179 0 0)
(0.00472324 0 0)
(0.00858892 0 0)
(0.0081904 0 0)
(0.0095573 0 0)
(0.0115187 0 0)
(0.00778643 0 0)
(-0.000917853 0 0)
(2.77086e-05 0 0)
(0.00488375 0 0)
(-0.000158773 0 0)
(0.00121012 0 0)
(0.00318073 0 0)
(-0.00139407 0 0)
(-0.0114447 0 0)
(-0.0038753 0 0)
)
;

boundaryField
{
    sideLeft
    {
        type            symmetryPlane;
    }
    sideRight
    {
        type            calculated;
        value           uniform (-0.722693 0 0);
    }
    topbottom
    {
        type            empty;
    }
    frontback
    {
        type            empty;
    }
}


// ************************************************************************* //
