/*--------------------------------*- C++ -*----------------------------------*\
| =========                 |                                                 |
| \\      /  F ield         | OpenFOAM: The Open Source CFD Toolbox           |
|  \\    /   O peration     | Version:  2.4.0                                 |
|   \\  /    A nd           | Web:      www.OpenFOAM.org                      |
|    \\/     M anipulation  |                                                 |
\*---------------------------------------------------------------------------*/
FoamFile
{
    version     2.0;
    format      ascii;
    class       surfaceScalarField;
    location    "0.03";
    object      phi;
}
// * * * * * * * * * * * * * * * * * * * * * * * * * * * * * * * * * * * * * //

dimensions      [0 3 -1 0 0 0 0];

internalField   nonuniform List<scalar> 
999
(
7.08067e-13
5.11591e-13
-1.27898e-13
-1.44035e-12
-1.8219e-12
-1.30411e-12
-5.7299e-13
1.27266e-12
1.06208e-12
1.83764e-12
1.64632e-12
1.80238e-12
1.91321e-12
1.68741e-12
1.22241e-12
1.00718e-12
1.43772e-12
1.7009e-12
2.04877e-12
3.15958e-12
1.32409e-12
-8.45795e-13
-1.09578e-12
-1.08598e-12
-2.09733e-12
-1.42925e-12
-1.21576e-13
-4.74578e-13
6.19914e-13
1.27625e-12
9.74597e-13
-2.70006e-13
-1.5019e-12
-7.94312e-13
-8.56633e-14
7.91719e-13
1.46747e-12
1.03636e-12
1.30556e-12
8.31687e-13
1.69337e-13
-7.77077e-13
-1.35759e-12
-1.02698e-12
-6.14954e-13
8.34181e-13
1.92886e-12
2.68338e-12
2.63692e-12
1.39057e-12
1.3246e-12
9.59077e-13
1.69103e-12
1.97173e-12
6.78845e-13
7.02317e-13
2.56751e-13
1.98952e-13
8.21621e-14
1.42045e-13
-8.76303e-13
7.95297e-13
7.47019e-13
1.2073e-13
-7.85705e-13
-7.00804e-13
-7.10546e-14
-2.72731e-13
-1.98952e-13
-1.8171e-13
-4.12066e-13
3.44778e-13
-2.13163e-13
4.26324e-14
8.66661e-13
1.69431e-12
1.19452e-12
1.58627e-13
2.22503e-14
-7.37154e-13
-1.44232e-12
-2.84477e-12
-2.61667e-12
-2.28203e-12
-1.74478e-12
-2.03361e-12
-2.68173e-12
-1.7985e-12
-3.47937e-12
-3.03378e-12
-2.96951e-12
-2.86298e-12
-3.03278e-12
-1.8731e-12
-1.13467e-12
-1.53514e-12
-1.43078e-12
-3.0822e-13
3.87854e-13
1.33782e-12
2.05878e-12
1.37663e-12
1.2372e-12
9.93763e-13
6.50473e-13
-1.84741e-13
-9.72748e-13
-1.90299e-12
-2.75286e-14
9.68297e-13
7.54433e-13
4.85031e-13
7.71949e-13
-3.08187e-13
6.65556e-14
4.9738e-13
-7.71804e-13
-2.56228e-13
-1.42109e-13
-4.94905e-13
1.02071e-12
2.86784e-12
3.48349e-12
3.29577e-12
3.04965e-12
3.77944e-12
2.47776e-12
2.13596e-12
2.26757e-12
2.56158e-12
1.58557e-12
1.16605e-12
4.01968e-13
-9.94761e-14
9.72515e-13
-9.94758e-14
-7.19112e-13
-7.33048e-13
-6.28186e-14
-1.41372e-12
-1.89615e-12
-1.67199e-12
-3.69482e-13
-5.95202e-13
-5.04916e-13
-2.82468e-13
-7.2456e-13
7.24958e-13
2.27374e-13
-3.83693e-13
8.52652e-14
-8.7012e-13
-1.47529e-12
-9.52425e-13
-4.62023e-13
-5.49794e-13
-8.59116e-13
-1.69695e-12
-1.36605e-12
-1.13802e-12
-1.52093e-12
-4.49822e-13
-1.13477e-13
8.09786e-14
6.53013e-13
7.53521e-13
1.71966e-12
1.16864e-12
2.22788e-12
4.60331e-13
1.07245e-12
3.56257e-13
-5.06967e-13
-1.51749e-12
-1.72778e-12
-1.57943e-12
-8.41608e-13
-2.56082e-12
-2.69325e-12
-2.51548e-12
-2.38028e-12
-1.93618e-12
-1.68751e-12
-1.40635e-12
-2.23824e-12
-1.97885e-12
-2.4072e-12
-1.56733e-12
-9.56786e-13
-9.44029e-13
-1.43922e-12
-1.47136e-12
-1.61826e-12
-1.29958e-12
-1.24565e-12
-3.84858e-13
-1.48485e-13
6.41335e-13
2.277e-13
6.51586e-13
-1.84741e-13
-3.23448e-13
-7.39207e-14
1.50051e-12
1.02713e-12
9.29007e-13
-1.38597e-13
2.27374e-13
2.05346e-12
2.18545e-12
2.13084e-12
1.38112e-12
8.10762e-13
1.75238e-13
2.71187e-14
-4.32354e-13
-1.03646e-13
1.38048e-12
9.39885e-13
3.9077e-13
8.97254e-13
6.20721e-13
1.28605e-12
2.83406e-13
-7.52372e-13
-1.67282e-13
6.52365e-13
5.25802e-13
7.68309e-13
1.01792e-12
1.20539e-12
1.7181e-12
8.87295e-13
7.38635e-13
9.47845e-13
6.71398e-13
4.87758e-13
-9.77275e-13
-1.05922e-12
3.61131e-13
6.82121e-13
1.0193e-12
8.32727e-13
-1.42109e-14
-2.04769e-13
-1.29411e-12
-1.25476e-12
-8.43411e-13
-1.73814e-12
-2.38879e-12
-1.38609e-12
-1.38052e-12
-1.59912e-12
-1.25666e-12
-1.53044e-12
-2.57794e-13
-1.26558e-12
-2.55796e-13
-9.10776e-13
-4.181e-13
2.14777e-13
1.33507e-12
-2.77324e-13
-3.91879e-14
6.65175e-13
5.68434e-14
3.98476e-13
1.47713e-12
1.89421e-12
1.40064e-12
2.0832e-12
1.8178e-12
1.12926e-12
1.0777e-12
5.25621e-13
1.50276e-12
1.558e-12
2.63805e-12
1.63055e-12
2.71586e-12
2.99868e-12
3.34325e-12
2.33614e-12
2.393e-12
2.66545e-12
1.67905e-12
5.96856e-13
-9.16664e-13
-6.02561e-13
-4.72459e-13
-1.01702e-12
-1.30564e-12
-1.12113e-12
-7.48153e-13
-1.63765e-12
-2.37126e-12
-9.87723e-13
-1.02303e-12
-6.83995e-13
1.49561e-14
1.01853e-14
-9.94761e-14
-5.68437e-14
1.14472e-12
8.66862e-13
9.43728e-13
1.04645e-12
2.44293e-12
8.5215e-13
5.25196e-13
2.90765e-13
1.27898e-13
-8.24113e-13
1.27457e-13
9.44622e-13
2.27374e-13
1.32433e-12
1.72856e-12
2.00857e-12
1.72949e-12
1.68066e-12
3.26132e-13
9.72671e-15
1.48768e-12
3.68097e-12
2.76634e-12
1.89055e-12
1.86817e-12
1.05759e-12
-2.13163e-13
-1.57706e-12
-1.40735e-12
-1.19827e-12
7.06968e-13
1.49099e-12
7.46808e-13
-2.19193e-14
-7.07059e-13
-8.39114e-13
-7.10543e-14
4.85776e-14
-1.02272e-12
-9.74274e-13
-7.07524e-13
-2.27244e-12
-1.6855e-12
-2.50407e-12
-1.38548e-12
-1.26378e-13
1.42505e-12
9.92908e-13
1.65568e-12
1.92731e-12
1.62449e-12
1.89452e-12
1.41514e-12
-9.06106e-13
-9.31964e-13
-7.33917e-13
-2.70006e-13
-3.88176e-13
-1.85841e-12
-1.01066e-12
-1.04832e-12
-1.40015e-12
-2.56111e-12
-2.87806e-12
-2.92319e-12
-4.45601e-12
-2.76363e-12
-2.3226e-12
-2.95021e-12
-4.09063e-12
-2.39634e-12
-7.14951e-13
-1.55869e-12
-9.7502e-13
-1.47042e-12
-9.98228e-13
-1.84704e-12
-1.12952e-12
-1.11963e-12
-1.43095e-12
-1.11634e-12
-1.30383e-12
-2.56717e-13
1.42108e-14
3.00637e-13
4.17832e-13
-2.02894e-13
-8.77705e-13
-1.16994e-12
-1.58874e-12
-3.37772e-12
-4.01896e-12
-2.53084e-12
-2.31002e-12
-2.70395e-12
-3.60242e-12
-1.85531e-12
-2.45361e-12
-2.88492e-12
-1.57953e-12
-4.53957e-13
-1.56883e-12
-3.84919e-13
-5.84697e-13
-9.5904e-13
-1.27898e-13
9.8986e-13
1.63116e-12
2.64197e-12
1.60397e-12
1.77133e-12
6.6791e-13
9.36588e-14
5.37346e-13
1.27725e-12
1.43539e-12
1.97236e-12
2.29638e-12
9.79546e-13
1.72976e-12
1.65268e-12
2.63364e-12
2.87801e-12
4.61673e-12
3.87181e-12
3.14421e-12
3.13141e-12
3.13836e-12
2.65755e-12
2.67614e-12
2.38551e-12
5.30106e-14
-1.00765e-12
-8.33231e-13
-1.9618e-12
-3.0199e-12
-3.6314e-12
-2.71552e-12
-3.18458e-12
-2.43551e-12
-3.4441e-12
-3.26612e-12
-2.63659e-12
-7.90134e-13
-6.64254e-13
-1.33154e-12
-1.37735e-12
-4.26326e-13
-7.59778e-13
1.13686e-13
-1.83758e-13
7.05112e-13
1.06516e-12
8.32944e-13
1.64937e-12
9.09674e-13
2.16614e-14
-7.21353e-13
-1.36536e-12
-1.75268e-12
-2.62384e-12
-1.78647e-12
-1.26121e-12
-1.34913e-12
-9.29897e-13
-2.42036e-12
-1.98826e-12
-2.92359e-12
-1.62311e-12
-3.31688e-12
-2.39396e-12
-1.57479e-12
-1.42519e-12
-6.46202e-13
-7.55934e-13
-1.37726e-13
8.71178e-13
5.95091e-13
-2.04994e-13
-2.98428e-13
4.67739e-14
-4.53125e-13
-5.96608e-13
-2.85208e-13
-9.00576e-14
-5.98138e-13
-9.60698e-14
4.12115e-13
-5.70862e-13
-2.90336e-13
-3.69876e-13
-8.17839e-13
-9.63411e-13
-4.02221e-13
2.84217e-13
8.27265e-13
-2.46883e-13
-1.18091e-12
-1.96813e-12
-2.23065e-12
-1.54596e-12
-1.62225e-12
-1.11318e-12
-4.07579e-13
3.96478e-13
-6.11067e-13
-3.58403e-13
2.80147e-13
1.98952e-13
2.60704e-13
1.67766e-13
-1.8899e-13
-8.3844e-13
-8.73737e-13
-1.01001e-12
-5.22564e-13
2.98428e-13
1.50941e-12
1.83285e-12
3.56499e-12
2.19099e-12
2.11347e-12
1.54391e-12
1.46485e-12
9.56459e-13
1.12737e-12
6.09463e-13
9.89e-13
-1.13687e-13
-1.27629e-13
1.22401e-13
8.20221e-13
1.0099e-12
-1.13596e-13
-2.9277e-13
4.26327e-14
3.15893e-13
-1.03576e-13
3.41155e-14
9.26959e-13
1.29509e-12
-7.10541e-14
-1.12211e-12
1.69482e-13
-1.13687e-13
-9.47838e-13
-1.76973e-12
-1.42984e-12
-1.54896e-12
-8.41957e-13
-1.50503e-12
-9.3701e-13
-2.84217e-13
1.0473e-12
2.17498e-12
2.04214e-12
7.9114e-13
8.49226e-13
4.35624e-13
1.05112e-12
1.13687e-13
2.3035e-13
3.2685e-13
-9.94762e-14
-2.55795e-13
-6.96919e-13
8.72035e-13
2.08339e-12
7.88665e-13
5.77743e-13
4.83169e-13
8.10502e-13
4.17581e-13
1.33481e-12
2.11368e-12
2.03248e-12
2.1596e-12
2.20789e-12
2.74669e-12
1.94933e-12
2.10329e-12
3.21392e-12
1.84885e-12
1.49941e-12
1.44302e-12
9.39154e-13
7.63672e-13
-2.77777e-14
-6.53623e-13
-1.04919e-13
8.0585e-13
9.22189e-13
6.89257e-13
-2.70198e-13
8.35104e-13
1.03308e-12
1.42107e-14
3.70003e-13
5.53812e-13
-2.80046e-14
-4.40363e-13
8.00081e-13
-1.56319e-13
3.93839e-13
6.19677e-15
-2.80113e-13
-1.14442e-12
-3.99486e-13
-1.42664e-12
-1.24709e-12
-2.13163e-13
3.69482e-13
5.89049e-13
-4.16566e-13
-1.24198e-12
-1.89423e-12
-1.70109e-12
-1.18797e-12
-1.55472e-12
-5.99785e-13
1.06521e-13
2.8106e-13
3.94327e-13
-4.21519e-13
4.26329e-14
-8.52442e-13
-1.10986e-12
-1.42107e-14
-1.80032e-13
-4.26326e-13
-6.14547e-13
3.12639e-13
3.375e-13
8.3844e-13
8.14052e-13
7.9312e-13
-5.58263e-13
-5.49027e-13
-1.20766e-12
-9.80258e-13
-1.24462e-13
4.71361e-13
7.67386e-13
2.06643e-12
1.39569e-12
1.35753e-12
1.58825e-12
1.22685e-12
5.3826e-13
3.54366e-13
1.12451e-12
1.248e-12
-4.69135e-14
5.03889e-13
3.12639e-13
1.19387e-12
1.5494e-12
2.70123e-12
2.06369e-12
2.97684e-12
3.45449e-12
2.64551e-12
3.4314e-12
3.61814e-12
2.57314e-12
1.13827e-12
1.42277e-12
1.3547e-12
9.52887e-13
1.84558e-12
2.72337e-12
3.38891e-12
3.07796e-12
1.28844e-12
1.37938e-12
2.5636e-13
-1.18063e-12
-1.45761e-12
-4.3076e-13
-2.99264e-13
-1.26187e-12
-5.14213e-13
-8.53517e-13
-3.1773e-14
2.41585e-13
-4.64557e-13
-1.1207e-12
-7.88049e-13
-1.07567e-12
-1.43306e-12
-1.19287e-12
-1.69194e-12
-9.18335e-13
-8.43658e-13
-1.41814e-12
-1.73904e-12
-6.52031e-13
1.78514e-13
1.36067e-12
1.20366e-13
1.42108e-14
-1.75743e-13
-1.22815e-12
-2.45043e-12
-1.85797e-12
-2.14538e-12
-1.57001e-12
-1.41019e-12
-1.00839e-12
-7.95453e-13
-1.30382e-12
-8.42871e-13
-1.18516e-12
-1.51135e-12
-1.11986e-12
-3.71715e-13
-4.37182e-13
-9.06657e-13
-1.84942e-12
-2.66112e-12
-2.31422e-12
-1.65095e-12
-9.59626e-13
-4.29291e-13
7.34055e-13
2.27961e-12
2.39831e-12
2.37906e-12
2.53647e-12
2.36392e-12
2.34467e-12
2.19825e-12
1.26869e-12
4.14078e-13
-7.02578e-13
5.65042e-13
1.09376e-12
7.31799e-13
1.12187e-12
-5.68435e-14
1.73464e-13
2.26876e-13
3.93496e-13
-1.0771e-12
3.38404e-13
9.96133e-13
1.08551e-12
6.9903e-13
7.07065e-13
9.01274e-13
4.59616e-13
9.80537e-13
7.8439e-13
7.59321e-13
1.28539e-12
7.86463e-13
6.1866e-13
-9.9476e-14
-3.70841e-13
-1.44809e-12
-1.33556e-12
-1.1089e-12
-1.03994e-12
-1.27652e-12
-3.89143e-13
-1.33378e-12
-1.7639e-12
-1.45944e-12
-1.46869e-12
-2.51272e-12
-3.11605e-12
-1.7126e-12
-2.21654e-12
-2.31046e-12
-1.99275e-12
-1.88893e-12
-1.65695e-12
-1.37515e-12
-8.46069e-13
-1.79024e-12
-9.9122e-13
-2.72015e-12
-2.54988e-12
-2.31411e-12
-2.23175e-12
-1.9681e-12
1.42109e-14
-2.72867e-13
-8.92036e-13
-9.20308e-13
7.10545e-14
-1.20088e-12
-8.62963e-13
6.53054e-13
2.84217e-13
2.23958e-13
1.48282e-13
1.02832e-12
1.39301e-12
2.74959e-12
3.50319e-12
3.36219e-12
2.17762e-12
2.47954e-12
3.32714e-12
3.00854e-12
2.44252e-12
2.15393e-12
4.95867e-13
-8.89139e-13
-3.45825e-13
-7.28108e-13
-1.10774e-12
-1.5119e-12
-1.20264e-12
9.41789e-14
2.97469e-13
4.4167e-14
-1.61748e-12
-2.23323e-12
-2.65316e-12
-2.53167e-12
-2.28455e-12
-2.24183e-12
-2.29009e-12
-2.3694e-12
-2.49064e-12
-3.45252e-12
-4.03619e-12
-2.91226e-12
-3.94023e-12
-3.14644e-12
-3.68014e-12
-2.80349e-12
-2.48737e-12
-2.2531e-12
-2.11772e-12
-1.39038e-12
-2.11962e-12
-1.74789e-12
-2.49458e-12
-2.63595e-12
-2.64655e-12
-3.19013e-12
-2.63814e-12
-4.23725e-12
-3.95098e-12
-5.36905e-12
-6.8527e-12
-7.06596e-12
-6.99951e-12
-6.74196e-12
-7.80064e-12
-6.4633e-12
-3.42297e-12
3.08376e-12
1.5422e-11
4.19745e-11
9.87006e-11
2.20448e-10
4.76379e-10
1.012e-09
2.12649e-09
4.42514e-09
9.11759e-09
1.86112e-08
3.76493e-08
7.54645e-08
1.49864e-07
2.94814e-07
5.74437e-07
1.10845e-06
2.11789e-06
4.00623e-06
7.5014e-06
1.39012e-05
2.5491e-05
4.6246e-05
8.29917e-05
0.000147295
0.000258494
0.000448475
0.000769068
0.00130329
0.00218212
0.00360897
0.00589469
0.00950638
0.0151339
0.0237777
0.0368616
0.0563725
0.0850266
0.126457
0.185417
0.26797
0.381669
0.535657
0.740697
1.00906
1.35426
1.79066
2.3328
2.99477
3.78927
4.72689
5.81527
7.05854
8.45692
10.0067
11.7005
13.5275
15.4748
17.5275
19.6703
21.888
24.1665
26.4931
28.857
31.2493
33.6629
36.0927
38.5347
40.9862
43.4453
45.9108
48.3819
50.858
53.3389
55.8245
58.3146
60.8094
63.3088
65.8131
68.3223
70.8367
73.3566
75.8821
78.4136
80.9513
83.4956
86.0468
88.6052
91.1712
93.7451
96.3272
98.918
101.518
104.127
106.745
109.373
112.012
114.66
117.319
119.989
122.67
125.362
128.065
130.78
133.507
136.245
138.996
141.758
144.532
147.317
150.113
152.919
155.736
158.563
161.4
164.247
167.105
169.973
172.85
175.738
178.637
181.546
184.467
187.399
190.343
193.297
196.264
199.243
202.234
205.236
208.249
211.28
214.323
217.376
220.445
223.525
226.616
229.716
232.803
235.938
239.135
)
;

boundaryField
{
    sideLeft
    {
        type            symmetryPlane;
        value           uniform 0;
    }
    sideRight
    {
        type            calculated;
        value           uniform 242.432;
    }
    topbottom
    {
        type            empty;
        value           nonuniform 0();
    }
    frontback
    {
        type            empty;
        value           nonuniform 0();
    }
}


// ************************************************************************* //
