/*--------------------------------*- C++ -*----------------------------------*\
| =========                 |                                                 |
| \\      /  F ield         | OpenFOAM: The Open Source CFD Toolbox           |
|  \\    /   O peration     | Version:  2.4.0                                 |
|   \\  /    A nd           | Web:      www.OpenFOAM.org                      |
|    \\/     M anipulation  |                                                 |
\*---------------------------------------------------------------------------*/
FoamFile
{
    version     2.0;
    format      ascii;
    class       surfaceScalarField;
    location    "0.03";
    object      phi.water;
}
// * * * * * * * * * * * * * * * * * * * * * * * * * * * * * * * * * * * * * //

dimensions      [0 3 -1 0 0 0 0];

internalField   nonuniform List<scalar> 
999
(
5.9438e-13
6.25278e-13
-5.25802e-13
-8.71917e-13
-2.33349e-12
-9.63049e-13
-6.86677e-13
9.31602e-13
1.57367e-12
1.49658e-12
1.76e-12
1.91606e-12
1.74268e-12
1.68741e-12
1.56347e-12
5.5243e-13
1.77878e-12
1.81459e-12
2.27614e-12
2.5343e-12
1.09671e-12
-4.47891e-13
-1.32315e-12
-8.01764e-13
-2.04049e-12
-1.48609e-12
-1.7842e-13
-4.17735e-13
3.9254e-13
1.33309e-12
5.1985e-13
1.84741e-13
-1.5019e-12
-6.23782e-13
1.4171e-13
3.93815e-13
1.2401e-12
1.37742e-12
7.9397e-13
1.17275e-12
5.67241e-13
-1.00445e-12
-1.18706e-12
-1.19751e-12
-8.42328e-13
9.47868e-13
1.75833e-12
2.91076e-12
2.18217e-12
1.73164e-12
9.26699e-13
1.07276e-12
2.25947e-12
1.8012e-12
7.35688e-13
9.86534e-13
8.62203e-14
2.84218e-14
-1.45212e-13
3.12575e-13
-4.21556e-13
3.97393e-13
6.90175e-13
6.38869e-14
-7.28862e-13
-5.87117e-13
-1.27898e-13
-1.59044e-13
-8.52653e-14
-3.5224e-13
-4.12066e-13
4.58464e-13
-4.9738e-13
2.70006e-13
8.09817e-13
1.69431e-12
9.10298e-13
1.01784e-13
3.06467e-13
-4.52937e-13
-1.72653e-12
-3.0153e-12
-2.21877e-12
-2.50941e-12
-1.85847e-12
-1.97677e-12
-2.5112e-12
-1.91219e-12
-3.36568e-12
-3.03378e-12
-2.96951e-12
-3.1472e-12
-2.86225e-12
-1.64573e-12
-1.19151e-12
-1.76252e-12
-1.65816e-12
-2.51377e-13
4.44697e-13
1.28098e-12
2.17247e-12
1.31979e-12
2.1467e-12
1.41112e-13
7.07316e-13
-3.55272e-13
-7.45375e-13
-1.44825e-12
-4.25433e-13
9.68297e-13
2.99685e-13
9.39779e-13
3.17202e-13
3.28731e-14
-2.17662e-13
7.24754e-13
-5.4443e-13
-2.56228e-13
-3.12639e-13
-2.10688e-13
6.79649e-13
2.86784e-12
3.65402e-12
3.18208e-12
3.04965e-12
3.66576e-12
2.81882e-12
2.42018e-12
1.86967e-12
2.73211e-12
1.18767e-12
1.05237e-12
2.88281e-13
-1.5632e-13
1.25673e-12
-4.26324e-14
-6.62269e-13
-7.89891e-13
-5.74409e-13
-9.58978e-13
-2.00984e-12
-1.67199e-12
-2.55795e-13
-3.67828e-13
-6.18603e-13
-6.80371e-13
2.98621e-13
1.56523e-13
-2.84217e-13
-2.13163e-13
1.98952e-13
-9.26963e-13
-1.87319e-12
-4.40834e-13
-5.7571e-13
-4.36107e-13
-5.18055e-13
-1.81063e-12
-1.36605e-12
-1.02433e-12
-1.46408e-12
-1.08762e-13
-6.25068e-13
1.37822e-13
5.39327e-13
8.10365e-13
1.71966e-12
1.5097e-12
1.26154e-12
1.25614e-12
6.17702e-13
2.99413e-13
-5.06967e-13
-1.23327e-12
-1.44357e-12
-1.57943e-12
-1.29636e-12
-2.6745e-12
-2.63641e-12
-2.40179e-12
-2.49397e-12
-2.04986e-12
-1.28961e-12
-1.80425e-12
-2.06771e-12
-2.09254e-12
-2.52089e-12
-1.22627e-12
-1.07047e-12
-3.18752e-13
-1.95081e-12
-1.58505e-12
-1.44773e-12
-1.41326e-12
-1.35934e-12
-3.84858e-13
1.92576e-13
1.86587e-13
5.11917e-13
8.22116e-13
-7.10541e-14
-6.07665e-13
1.53453e-13
1.38683e-12
9.7029e-13
1.04269e-12
-5.36501e-13
2.84217e-13
2.33768e-12
1.90124e-12
2.41506e-12
1.21059e-12
8.10762e-13
3.45769e-13
2.71187e-14
-4.32354e-13
2.37414e-13
9.8258e-13
1.45148e-12
3.33926e-13
6.13037e-13
3.36504e-13
1.3429e-12
4.53936e-13
-9.22902e-13
-2.24125e-13
7.09209e-13
4.68958e-13
6.54622e-13
9.0423e-13
1.14854e-12
2.17285e-12
8.30452e-13
6.24948e-13
7.77314e-13
7.28241e-13
3.74071e-13
-1.03412e-12
-1.00237e-12
4.17975e-13
7.95808e-13
9.05611e-13
1.00326e-12
-1.84741e-13
-2.61612e-13
-1.23726e-12
-1.14107e-12
-1.24132e-12
-1.51077e-12
-2.44563e-12
-1.21556e-12
-1.6079e-12
-1.76965e-12
-8.01913e-13
-1.47359e-12
-4.28324e-13
-1.32243e-12
-3.69483e-13
-1.02446e-12
-2.4757e-13
3.28464e-13
1.33507e-12
1.77424e-13
-4.93935e-13
8.92548e-13
-1.7053e-13
4.5532e-13
1.3066e-12
2.17842e-12
1.23011e-12
1.96952e-12
1.76096e-12
1.01557e-12
1.13454e-12
4.68777e-13
1.21855e-12
1.67169e-12
2.58121e-12
1.97161e-12
2.26111e-12
3.2829e-12
3.17272e-12
2.44983e-12
2.393e-12
2.66545e-12
1.50852e-12
3.12639e-13
-5.1876e-13
-4.88874e-13
-6.42989e-13
-7.32799e-13
-1.30564e-12
-1.40535e-12
-9.18684e-13
-1.35344e-12
-2.0302e-12
-1.10141e-12
-1.42094e-12
-3.42934e-13
7.17995e-14
1.80716e-13
-5.54223e-13
3.97904e-13
7.46816e-13
1.09424e-12
3.75294e-13
1.38751e-12
2.04502e-12
1.13637e-12
6.95726e-13
-1.07139e-13
1.42109e-14
-2.55679e-13
1.27457e-13
4.89875e-13
5.11591e-13
1.26749e-12
1.72856e-12
2.00857e-12
2.1274e-12
1.28276e-12
4.39819e-13
2.371e-13
1.54452e-12
3.4536e-12
2.76634e-12
2.00424e-12
2.32292e-12
4.89153e-13
-9.94759e-14
-1.57706e-12
-1.52104e-12
-8.57208e-13
5.93282e-13
1.32046e-12
9.17339e-13
-7.87627e-14
-9.91276e-13
-6.1174e-13
-1.42108e-14
-5.19857e-13
-7.95346e-13
-6.33214e-13
-8.21211e-13
-2.2156e-12
-1.74234e-12
-2.50407e-12
-1.38548e-12
1.57839e-13
1.02715e-12
9.92908e-13
1.99674e-12
1.58625e-12
1.9087e-12
1.72399e-12
1.30146e-12
-7.92419e-13
-1.21618e-12
-5.06543e-13
-9.94761e-14
-7.29237e-13
-1.57419e-12
-1.12434e-12
-1.10517e-12
-1.28646e-12
-2.61796e-12
-2.9349e-12
-3.15057e-12
-4.05811e-12
-2.87732e-12
-2.43629e-12
-2.66599e-12
-4.14747e-12
-2.62371e-12
-8.28638e-13
-1.61554e-12
-1.14555e-12
-1.1862e-12
-8.84542e-13
-2.30179e-12
-1.12952e-12
-1.00594e-12
-1.60148e-12
-1.11634e-12
-1.19014e-12
-2.93435e-14
1.84741e-13
3.5748e-13
1.33615e-13
-3.73424e-13
-8.77705e-13
-1.28363e-12
-1.9298e-12
-2.75244e-12
-3.84843e-12
-2.70137e-12
-2.19633e-12
-3.32923e-12
-3.09082e-12
-2.08268e-12
-2.45361e-12
-2.82807e-12
-1.12479e-12
-6.8133e-13
-1.45514e-12
-6.69136e-13
-6.4154e-13
-1.01588e-12
4.26325e-14
1.16039e-12
1.51748e-12
2.8125e-12
1.43344e-12
1.65765e-12
4.40536e-13
5.48406e-13
3.09972e-13
1.39094e-12
1.60592e-12
1.74499e-12
2.35323e-12
9.79546e-13
1.67291e-12
1.539e-12
3.08838e-12
2.76432e-12
4.0483e-12
4.49709e-12
2.80315e-12
3.07457e-12
2.62677e-12
2.88492e-12
2.96036e-12
2.55604e-12
-6.06762e-14
-8.93965e-13
-8.90074e-13
-1.9618e-12
-3.07674e-12
-3.46087e-12
-3.05658e-12
-2.9572e-12
-2.66288e-12
-3.4441e-12
-3.09558e-12
-2.52291e-12
-9.60664e-13
-3.23193e-13
-1.38839e-12
-1.20682e-12
-4.26326e-13
-9.87152e-13
-1.70531e-13
3.27833e-13
2.50365e-13
1.23569e-12
1.06032e-12
1.76306e-12
1.02336e-12
-3.76243e-13
-5.50822e-13
-1.25167e-12
-1.69583e-12
-2.68068e-12
-1.78647e-12
-1.31805e-12
-1.51966e-12
-1.10043e-12
-2.36351e-12
-1.6472e-12
-2.86674e-12
-2.07785e-12
-2.35054e-12
-2.84871e-12
-1.40426e-12
-1.76626e-12
-5.89358e-13
-8.12778e-13
1.46491e-13
5.86961e-13
7.08778e-13
7.92235e-14
-2.98428e-13
-4.07973e-13
-6.23656e-13
-1.98704e-13
-3.98895e-13
4.21533e-13
-6.54981e-13
-6.07661e-13
2.41584e-13
-4.00331e-13
-6.29622e-14
-4.83563e-13
-8.17839e-13
-1.0771e-12
-4.59065e-13
2.84217e-13
1.16833e-12
-5.31101e-13
-8.96694e-13
-2.02497e-12
-2.23065e-12
-1.65965e-12
-1.56541e-12
-1.17003e-12
-4.64423e-13
5.54178e-14
-2.70006e-13
-2.44716e-13
1.6646e-13
1.98952e-13
2.60704e-13
1.10923e-13
-3.02677e-13
-4.26326e-14
-1.55586e-12
-1.06685e-12
-4.08877e-13
4.68958e-13
1.28204e-12
1.71916e-12
3.11024e-12
2.58889e-12
1.94294e-12
1.60075e-12
1.9196e-12
3.31182e-13
1.46843e-12
7.2315e-13
1.04584e-12
5.68435e-14
-2.98159e-13
2.36088e-13
8.20221e-13
6.68843e-13
-5.67521e-14
-2.9277e-13
2.70006e-13
3.16759e-14
1.80641e-13
1.47802e-13
6.42742e-13
1.01087e-12
-1.27898e-13
-1.06527e-12
5.57956e-14
2.27374e-13
-9.47838e-13
-1.5992e-12
-1.7709e-12
-1.66265e-12
-1.01249e-12
-1.16397e-12
-7.6648e-13
-1.13687e-13
1.10415e-12
2.00445e-12
1.70108e-12
1.35957e-12
2.23948e-13
8.33528e-13
1.39218e-12
-2.27374e-13
3.44037e-13
3.2685e-13
-4.40537e-13
2.55795e-13
-1.15167e-12
7.58348e-13
2.08339e-12
1.07288e-12
5.77743e-13
4.26326e-13
7.53659e-13
5.31268e-13
1.39165e-12
1.8863e-12
2.20301e-12
1.93223e-12
2.49211e-12
2.68985e-12
2.00617e-12
1.5917e-12
3.44129e-12
1.90569e-12
1.49941e-12
1.21565e-12
1.22337e-12
4.79455e-13
-2.77777e-14
-3.69406e-13
-1.61763e-13
5.21633e-13
8.65345e-13
8.02944e-13
4.11923e-13
4.372e-13
6.92024e-13
-4.26327e-14
3.1316e-13
6.67498e-13
-3.12222e-13
-9.93021e-14
8.00081e-13
-4.26325e-14
2.23308e-13
1.76727e-13
-6.78017e-13
-6.3283e-13
-7.40546e-13
-1.14243e-12
-1.30393e-12
-3.83693e-13
3.69482e-13
3.61676e-13
-7.55057e-14
-1.5262e-12
-2.00791e-12
-1.64425e-12
-1.18797e-12
-1.44103e-12
-4.86098e-13
4.96775e-14
3.37903e-13
3.94327e-13
-8.0458e-14
-2.41584e-13
-9.66129e-13
-8.82486e-13
-3.55271e-13
-2.93719e-13
-1.42108e-13
-5.0086e-13
3.12639e-13
5.32825e-14
8.3844e-13
1.55302e-12
4.52059e-13
-6.7195e-13
-4.92183e-13
-1.15082e-12
-8.09728e-13
-3.51836e-13
1.303e-13
9.9476e-13
2.18012e-12
1.11147e-12
1.30069e-12
1.53141e-12
1.39738e-12
5.95103e-13
6.38583e-13
1.06766e-12
9.6378e-13
4.07834e-13
2.76516e-13
3.12639e-13
1.19387e-12
1.49256e-12
2.81491e-12
1.72263e-12
3.03368e-12
3.68186e-12
2.70235e-12
3.54509e-12
3.50445e-12
2.74367e-12
7.4037e-13
1.53645e-12
1.3547e-12
1.06657e-12
1.67505e-12
2.60969e-12
3.38891e-12
3.1348e-12
1.11791e-12
1.60676e-12
2.5636e-13
-9.53252e-13
-1.34392e-12
-6.0129e-13
-6.40325e-13
-1.14819e-12
-5.14213e-13
-1.19458e-12
1.38757e-13
4.68958e-13
-5.78244e-13
-1.00702e-12
-1.01542e-12
-9.05138e-13
-1.60359e-12
-1.13603e-12
-1.18035e-12
-1.20255e-12
-7.29971e-13
-1.7592e-12
-1.62535e-12
-5.38344e-13
4.05887e-13
1.1333e-12
1.7721e-13
-2.13163e-13
-5.21278e-15
-1.28499e-12
-2.56412e-12
-1.68744e-12
-2.20222e-12
-1.34263e-12
-1.52387e-12
-1.17892e-12
-9.0914e-13
-1.13329e-12
-7.29184e-13
-8.44096e-13
-1.9661e-12
-1.29039e-12
-1.44341e-13
-3.80339e-13
-9.635e-13
-1.67889e-12
-2.83165e-12
-2.59844e-12
-1.53726e-12
-6.75409e-13
-7.13509e-13
1.30249e-12
2.16593e-12
2.85306e-12
1.86747e-12
2.3091e-12
2.47761e-12
2.34467e-12
2.36878e-12
1.43922e-12
-4.06695e-14
-4.75204e-13
5.65042e-13
1.71904e-12
8.45485e-13
6.6712e-13
-1.13687e-13
2.93408e-15
2.26876e-13
3.93496e-13
-9.06569e-13
3.38404e-13
1.16666e-12
1.08551e-12
4.14813e-13
6.50222e-13
1.0718e-12
6.30146e-13
1.09422e-12
6.1386e-13
9.86695e-13
1.00117e-12
4.45402e-13
9.5972e-13
2.41585e-13
-5.41371e-13
-1.50493e-12
-1.50609e-12
-1.27943e-12
-1.15363e-12
-1.04915e-12
-6.7336e-13
-1.2201e-12
-1.70705e-12
-1.57313e-12
-1.63922e-12
-2.34219e-12
-3.0592e-12
-2.2242e-12
-1.59127e-12
-2.3673e-12
-2.33381e-12
-1.77525e-12
-1.71379e-12
-1.09094e-12
-4.48165e-13
-2.07446e-12
-1.16175e-12
-2.32224e-12
-2.77726e-12
-2.31411e-12
-2.57281e-12
-1.39967e-12
-2.70006e-13
-1.59181e-13
-7.78349e-13
-1.09084e-12
7.10545e-14
-1.25772e-12
-7.49276e-13
4.82524e-13
1.7053e-13
3.37645e-13
1.48282e-13
1.02832e-12
1.22248e-12
2.52222e-12
3.67372e-12
3.19166e-12
1.95025e-12
2.76376e-12
3.44083e-12
2.95169e-12
2.44252e-12
2.04025e-12
2.68494e-13
-3.77549e-13
-4.59512e-13
-7.84952e-13
-8.80368e-13
-1.45505e-12
-1.65739e-12
2.07866e-13
4.67999e-13
-1.26764e-14
-1.44695e-12
-2.51744e-12
-2.76685e-12
-2.75904e-12
-2.11402e-12
-2.24183e-12
-2.29009e-12
-2.31256e-12
-2.49064e-12
-3.33883e-12
-4.03619e-12
-2.5712e-12
-4.39498e-12
-3.14644e-12
-3.68014e-12
-2.91717e-12
-2.48737e-12
-1.91204e-12
-2.45878e-12
-1.39038e-12
-2.29015e-12
-2.0321e-12
-2.03983e-12
-2.74963e-12
-2.64655e-12
-3.07644e-12
-3.14973e-12
-3.49828e-12
-4.06466e-12
-5.65326e-12
-6.51164e-12
-7.29333e-12
-6.94267e-12
-6.91249e-12
-7.91432e-12
-6.12224e-12
-3.82087e-12
3.25429e-12
1.49104e-11
4.12356e-11
9.75637e-11
2.18231e-10
4.71377e-10
1.00137e-09
2.10534e-09
4.38279e-09
9.03181e-09
1.84421e-08
3.73164e-08
7.48166e-08
1.48617e-07
2.92437e-07
5.69954e-07
1.10009e-06
2.10246e-06
3.97805e-06
7.45054e-06
1.38104e-05
2.5331e-05
4.59672e-05
8.25117e-05
0.000146479
0.000257125
0.000446208
0.000765365
0.00129732
0.00217264
0.00359412
0.00587178
0.00947158
0.0150818
0.0237011
0.0367508
0.0562149
0.0848065
0.126156
0.185011
0.267435
0.380976
0.534781
0.739612
1.00775
1.35271
1.78886
2.33079
2.99255
3.78691
4.72445
5.81281
7.05613
8.45464
10.0046
11.6986
13.526
15.4735
17.5265
19.6696
21.8877
24.1664
26.4932
28.8572
31.2496
33.6633
36.0932
38.5352
40.9867
43.4458
45.9113
48.3824
50.8586
53.3395
55.825
58.3152
60.8099
63.3093
65.8136
68.3228
70.8372
73.3571
75.8826
78.414
80.9517
83.496
86.0472
88.6056
91.1716
93.7455
96.3276
98.9184
101.518
104.127
106.745
109.374
112.012
114.661
117.32
119.99
122.67
125.362
128.066
130.781
133.507
136.246
138.996
141.758
144.532
147.317
150.113
152.919
155.736
158.563
161.4
164.248
167.105
169.973
172.851
175.738
178.637
181.547
184.468
187.4
190.343
193.297
196.264
199.243
202.235
205.236
208.249
211.28
214.323
217.377
220.445
223.526
226.616
229.717
232.806
235.946
239.137
)
;

boundaryField
{
    sideLeft
    {
        type            symmetryPlane;
        value           uniform 0;
    }
    sideRight
    {
        type            calculated;
        value           uniform 815.459;
    }
    topbottom
    {
        type            empty;
        value           nonuniform 0();
    }
    frontback
    {
        type            empty;
        value           nonuniform 0();
    }
}


// ************************************************************************* //
