/*--------------------------------*- C++ -*----------------------------------*\
| =========                 |                                                 |
| \\      /  F ield         | OpenFOAM: The Open Source CFD Toolbox           |
|  \\    /   O peration     | Version:  2.4.0                                 |
|   \\  /    A nd           | Web:      www.OpenFOAM.org                      |
|    \\/     M anipulation  |                                                 |
\*---------------------------------------------------------------------------*/
FoamFile
{
    version     2.0;
    format      ascii;
    class       volVectorField;
    location    "0.03";
    object      U;
}
// * * * * * * * * * * * * * * * * * * * * * * * * * * * * * * * * * * * * * //

dimensions      [0 1 -1 0 0 0 0];

internalField   nonuniform List<vector> 
1000
(
(7.10545e-14 0 0)
(2.27374e-13 0 0)
(1.42109e-14 0 0)
(-1.84741e-13 0 0)
(-4.90274e-13 0 0)
(-3.33955e-13 0 0)
(-3.05533e-13 0 0)
(3.55271e-14 0 0)
(3.48166e-13 0 0)
(3.83693e-13 0 0)
(4.54747e-13 0 0)
(3.69482e-13 0 0)
(5.25801e-13 0 0)
(4.0501e-13 0 0)
(3.33955e-13 0 0)
(2.34479e-13 0 0)
(2.98428e-13 0 0)
(3.48166e-13 0 0)
(5.54223e-13 0 0)
(5.96856e-13 0 0)
(6.39488e-13 0 0)
(7.1056e-15 0 0)
(-2.55796e-13 0 0)
(-2.27374e-13 0 0)
(-5.32907e-13 0 0)
(-3.97904e-13 0 0)
(-1.13687e-13 0 0)
(-7.10544e-14 0 0)
(-8.52649e-14 0 0)
(3.12639e-13 0 0)
(3.48166e-13 0 0)
(7.10544e-14 0 0)
(-2.13163e-13 0 0)
(-3.48166e-13 0 0)
(-1.06582e-13 0 0)
(4.97382e-14 0 0)
(3.26849e-13 0 0)
(2.20268e-13 0 0)
(3.48166e-13 0 0)
(2.91323e-13 0 0)
(2.13163e-13 0 0)
(-1.20792e-13 0 0)
(-2.70006e-13 0 0)
(-2.62901e-13 0 0)
(-2.84217e-13 0 0)
(5.68434e-14 0 0)
(3.69482e-13 0 0)
(5.82645e-13 0 0)
(6.82121e-13 0 0)
(5.11591e-13 0 0)
(2.91323e-13 0 0)
(2.77112e-13 0 0)
(3.12639e-13 0 0)
(5.18696e-13 0 0)
(2.4869e-13 0 0)
(9.94759e-14 0 0)
(1.91847e-13 0 0)
(-6.39489e-14 0 0)
(4.26326e-14 0 0)
(8.5265e-14 0 0)
(-1.84741e-13 0 0)
(2.13162e-14 0 0)
(1.98952e-13 0 0)
(9.94761e-14 0 0)
(-2.84218e-14 0 0)
(-2.70006e-13 0 0)
(2.13162e-14 0 0)
(-3.55272e-14 0 0)
(-7.81596e-14 0 0)
(3.5527e-14 0 0)
(-1.63425e-13 0 0)
(1.06581e-13 0 0)
(-4.97378e-14 0 0)
(-1.42109e-14 0 0)
(1.42108e-14 0 0)
(3.55272e-13 0 0)
(4.33431e-13 0 0)
(6.39491e-14 0 0)
(2.13162e-14 0 0)
(-8.5265e-14 0 0)
(-2.06058e-13 0 0)
(-5.47118e-13 0 0)
(-6.96332e-13 0 0)
(-6.11067e-13 0 0)
(-5.25802e-13 0 0)
(-4.9738e-13 0 0)
(-6.32383e-13 0 0)
(-3.97904e-13 0 0)
(-6.60805e-13 0 0)
(-8.66862e-13 0 0)
(-7.03438e-13 0 0)
(-7.03437e-13 0 0)
(-6.82121e-13 0 0)
(-6.89226e-13 0 0)
(-3.12639e-13 0 0)
(-3.19744e-13 0 0)
(-4.47642e-13 0 0)
(-1.13687e-13 0 0)
(-4.97379e-14 0 0)
(2.91322e-13 0 0)
(3.83693e-13 0 0)
(4.05009e-13 0 0)
(4.05009e-13 0 0)
(1.77636e-13 0 0)
(1.91847e-13 0 0)
(6.3949e-14 0 0)
(-1.35003e-13 0 0)
(-4.05009e-13 0 0)
(-2.84217e-13 0 0)
(2.70006e-13 0 0)
(6.3949e-14 0 0)
(1.98952e-13 0 0)
(2.27374e-13 0 0)
(4.26324e-14 0 0)
(-4.9738e-14 0 0)
(8.52653e-14 0 0)
(2.84216e-14 0 0)
(-1.56319e-13 0 0)
(-2.13163e-14 0 0)
(-5.68434e-14 0 0)
(-5.68434e-14 0 0)
(5.47118e-13 0 0)
(7.81597e-13 0 0)
(8.73968e-13 0 0)
(8.10019e-13 0 0)
(8.17124e-13 0 0)
(8.17124e-13 0 0)
(5.11591e-13 0 0)
(6.46594e-13 0 0)
(5.25802e-13 0 0)
(6.03961e-13 0 0)
(2.70006e-13 0 0)
(2.13163e-13 0 0)
(-8.52651e-14 0 0)
(1.06581e-13 0 0)
(1.49214e-13 0 0)
(-1.13687e-13 0 0)
(-2.13163e-13 0 0)
(-5.68435e-14 0 0)
(-2.13163e-13 0 0)
(-4.47642e-13 0 0)
(-3.69482e-13 0 0)
(-2.84217e-13 0 0)
(-9.62808e-20 0 0)
(-1.7053e-13 0 0)
(-6.3949e-14 0 0)
(-2.06057e-13 0 0)
(4.97379e-14 0 0)
(1.7053e-13 0 0)
(-9.9476e-14 0 0)
(7.10552e-15 0 0)
(-4.26326e-14 0 0)
(-3.33955e-13 0 0)
(-3.19744e-13 0 0)
(-1.7053e-13 0 0)
(-1.35003e-13 0 0)
(-7.81598e-14 0 0)
(-3.41061e-13 0 0)
(-3.76588e-13 0 0)
(-2.91323e-13 0 0)
(-4.12115e-13 0 0)
(-1.91847e-13 0 0)
(-6.39488e-14 0 0)
(7.10534e-15 0 0)
(9.9476e-14 0 0)
(1.49214e-13 0 0)
(2.62901e-13 0 0)
(3.90799e-13 0 0)
(3.97904e-13 0 0)
(3.48166e-13 0 0)
(2.41584e-13 0 0)
(1.35003e-13 0 0)
(-2.84217e-14 0 0)
(-1.98952e-13 0 0)
(-4.1922e-13 0 0)
(-4.76064e-13 0 0)
(-2.98428e-13 0 0)
(-3.62377e-13 0 0)
(-6.89226e-13 0 0)
(-6.96332e-13 0 0)
(-5.68434e-13 0 0)
(-5.11591e-13 0 0)
(-5.04485e-13 0 0)
(-3.83693e-13 0 0)
(-3.48166e-13 0 0)
(-5.68434e-13 0 0)
(-5.40013e-13 0 0)
(-5.18696e-13 0 0)
(-3.12639e-13 0 0)
(-1.49214e-13 0 0)
(-3.41061e-13 0 0)
(-3.76588e-13 0 0)
(-3.41061e-13 0 0)
(-4.40536e-13 0 0)
(-2.55795e-13 0 0)
(-2.06057e-13 0 0)
(-4.26326e-14 0 0)
(6.39488e-14 0 0)
(1.5632e-13 0 0)
(8.5265e-14 0 0)
(9.94759e-14 0 0)
(-1.49214e-13 0 0)
(-2.13163e-14 0 0)
(1.35003e-13 0 0)
(3.4106e-13 0 0)
(3.12639e-13 0 0)
(1.42107e-14 0 0)
(-9.94758e-14 0 0)
(2.77112e-13 0 0)
(5.47118e-13 0 0)
(5.7554e-13 0 0)
(4.76064e-13 0 0)
(2.06057e-13 0 0)
(9.23706e-14 0 0)
(3.55272e-14 0 0)
(-2.84218e-14 0 0)
(-1.56319e-13 0 0)
(2.06057e-13 0 0)
(3.05534e-13 0 0)
(1.27898e-13 0 0)
(1.42109e-13 0 0)
(1.42109e-13 0 0)
(2.62901e-13 0 0)
(2.41584e-13 0 0)
(-1.56319e-13 0 0)
(-1.27898e-13 0 0)
(4.9738e-14 0 0)
(1.20792e-13 0 0)
(1.7053e-13 0 0)
(1.77636e-13 0 0)
(1.77636e-13 0 0)
(4.05009e-13 0 0)
(3.48166e-13 0 0)
(1.91846e-13 0 0)
(1.63425e-13 0 0)
(2.06057e-13 0 0)
(1.77636e-13 0 0)
(-2.13163e-14 0 0)
(-3.05533e-13 0 0)
(-1.7053e-13 0 0)
(2.98428e-13 0 0)
(1.98952e-13 0 0)
(1.5632e-13 0 0)
(1.91846e-13 0 0)
(-1.35003e-13 0 0)
(-1.49214e-13 0 0)
(-3.55271e-13 0 0)
(-2.34479e-13 0 0)
(-3.41061e-13 0 0)
(-5.25802e-13 0 0)
(-4.1922e-13 0 0)
(-3.55272e-13 0 0)
(-3.83693e-13 0 0)
(-3.76588e-13 0 0)
(-2.98428e-13 0 0)
(-1.91846e-13 0 0)
(-2.13163e-13 0 0)
(-1.77636e-13 0 0)
(-7.816e-14 0 0)
(-2.55795e-13 0 0)
(1.42105e-14 0 0)
(2.41585e-13 0 0)
(1.27898e-13 0 0)
(-1.20792e-13 0 0)
(7.81598e-14 0 0)
(8.52651e-14 0 0)
(6.81131e-20 0 0)
(3.05533e-13 0 0)
(4.1922e-13 0 0)
(3.90799e-13 0 0)
(3.76588e-13 0 0)
(5.11591e-13 0 0)
(3.2685e-13 0 0)
(2.55795e-13 0 0)
(2.20268e-13 0 0)
(2.41584e-13 0 0)
(3.48166e-13 0 0)
(5.32907e-13 0 0)
(5.04486e-13 0 0)
(5.61329e-13 0 0)
(6.53699e-13 0 0)
(7.95808e-13 0 0)
(7.81597e-13 0 0)
(5.40013e-13 0 0)
(6.6791e-13 0 0)
(5.11591e-13 0 0)
(2.41584e-13 0 0)
(-3.55269e-14 0 0)
(-2.06057e-13 0 0)
(-1.27898e-13 0 0)
(-1.63425e-13 0 0)
(-2.98428e-13 0 0)
(-2.34479e-13 0 0)
(-2.41584e-13 0 0)
(-2.13163e-13 0 0)
(-5.89751e-13 0 0)
(-3.90798e-13 0 0)
(-1.20792e-13 0 0)
(-2.77112e-13 0 0)
(-7.10542e-14 0 0)
(4.97379e-14 0 0)
(-2.84216e-14 0 0)
(-8.52653e-14 0 0)
(1.56319e-13 0 0)
(2.41585e-13 0 0)
(1.63425e-13 0 0)
(2.06058e-13 0 0)
(4.68958e-13 0 0)
(3.69482e-13 0 0)
(1.84741e-13 0 0)
(9.23705e-14 0 0)
(4.26327e-14 0 0)
(-9.23706e-14 0 0)
(-1.13687e-13 0 0)
(1.77636e-13 0 0)
(9.9476e-14 0 0)
(5.68434e-14 0 0)
(4.47642e-13 0 0)
(5.04485e-13 0 0)
(3.55271e-13 0 0)
(4.61853e-13 0 0)
(2.34479e-13 0 0)
(-1.42111e-14 0 0)
(8.52652e-14 0 0)
(6.11067e-13 0 0)
(8.2423e-13 0 0)
(6.82121e-13 0 0)
(4.61853e-13 0 0)
(2.77112e-13 0 0)
(1.91847e-13 0 0)
(-2.41585e-13 0 0)
(-3.76588e-13 0 0)
(-4.12115e-13 0 0)
(-4.26328e-14 0 0)
(3.12639e-13 0 0)
(2.98428e-13 0 0)
(1.13687e-13 0 0)
(-7.10542e-14 0 0)
(-2.4869e-13 0 0)
(-1.06582e-13 0 0)
(5.68435e-14 0 0)
(-1.49214e-13 0 0)
(-2.20268e-13 0 0)
(-2.55795e-13 0 0)
(-2.84217e-13 0 0)
(-5.61329e-13 0 0)
(-4.68958e-13 0 0)
(-5.54223e-13 0 0)
(-1.91847e-13 0 0)
(2.34479e-13 0 0)
(2.91322e-13 0 0)
(3.12639e-13 0 0)
(4.68958e-13 0 0)
(3.83693e-13 0 0)
(4.76064e-13 0 0)
(4.54747e-13 0 0)
(-7.10521e-15 0 0)
(-2.41585e-13 0 0)
(-2.91322e-13 0 0)
(-8.52652e-14 0 0)
(1.42109e-14 0 0)
(-2.98428e-13 0 0)
(-4.54747e-13 0 0)
(-1.91847e-13 0 0)
(-1.98952e-13 0 0)
(-4.90275e-13 0 0)
(-7.03437e-13 0 0)
(-7.24754e-13 0 0)
(-9.45022e-13 0 0)
(-9.166e-13 0 0)
(-6.39489e-13 0 0)
(-6.11067e-13 0 0)
(-9.37916e-13 0 0)
(-8.66862e-13 0 0)
(-3.48166e-13 0 0)
(-1.13687e-13 0 0)
(-3.62377e-13 0 0)
(-2.62901e-13 0 0)
(-3.33955e-13 0 0)
(-3.2685e-13 0 0)
(-4.33431e-13 0 0)
(-2.70006e-13 0 0)
(-3.2685e-13 0 0)
(-2.91323e-13 0 0)
(-3.05534e-13 0 0)
(-2.55795e-13 0 0)
(1.06581e-13 0 0)
(-3.5527e-14 0 0)
(1.27898e-13 0 0)
(1.54015e-19 0 0)
(-8.52652e-14 0 0)
(-2.27374e-13 0 0)
(-3.19744e-13 0 0)
(-5.96856e-13 0 0)
(-9.30811e-13 0 0)
(-8.52651e-13 0 0)
(-5.25802e-13 0 0)
(-5.8975e-13 0 0)
(-8.02913e-13 0 0)
(-7.10543e-13 0 0)
(-4.40536e-13 0 0)
(-6.89227e-13 0 0)
(-5.61329e-13 0 0)
(-2.4869e-13 0 0)
(-2.4869e-13 0 0)
(-2.13163e-13 0 0)
(-1.5632e-13 0 0)
(-9.94759e-14 0 0)
(-2.27374e-13 0 0)
(1.20792e-13 0 0)
(3.33955e-13 0 0)
(5.32907e-13 0 0)
(5.47118e-13 0 0)
(4.26326e-13 0 0)
(3.12639e-13 0 0)
(-2.84217e-14 0 0)
(7.10542e-14 0 0)
(2.06057e-13 0 0)
(3.2685e-13 0 0)
(4.61853e-13 0 0)
(5.18696e-13 0 0)
(3.97904e-13 0 0)
(2.84217e-13 0 0)
(4.54747e-13 0 0)
(4.61853e-13 0 0)
(7.10543e-13 0 0)
(9.02389e-13 0 0)
(1.06581e-12 0 0)
(8.95284e-13 0 0)
(8.02914e-13 0 0)
(7.81597e-13 0 0)
(7.17648e-13 0 0)
(6.32383e-13 0 0)
(6.6791e-13 0 0)
(2.77112e-13 0 0)
(-1.7053e-13 0 0)
(-2.4869e-13 0 0)
(-2.62901e-13 0 0)
(-5.54223e-13 0 0)
(-9.52127e-13 0 0)
(-7.17648e-13 0 0)
(-8.2423e-13 0 0)
(-6.53699e-13 0 0)
(-7.53175e-13 0 0)
(-8.59757e-13 0 0)
(-6.89227e-13 0 0)
(-4.40536e-13 0 0)
(-1.49214e-13 0 0)
(-2.06057e-13 0 0)
(-3.69482e-13 0 0)
(-1.63425e-13 0 0)
(-9.23704e-14 0 0)
(-1.06582e-13 0 0)
(3.55271e-14 0 0)
(2.13164e-14 0 0)
(2.20268e-13 0 0)
(2.4869e-13 0 0)
(2.55795e-13 0 0)
(3.48166e-13 0 0)
(1.5632e-13 0 0)
(-1.5632e-13 0 0)
(-2.41584e-13 0 0)
(-3.69482e-13 0 0)
(-6.60805e-13 0 0)
(-4.47642e-13 0 0)
(-3.90798e-13 0 0)
(-2.55795e-13 0 0)
(-3.62377e-13 0 0)
(-3.69482e-13 0 0)
(-5.68434e-13 0 0)
(-5.61329e-13 0 0)
(-5.68434e-13 0 0)
(-6.03961e-13 0 0)
(-7.10543e-13 0 0)
(-4.90274e-13 0 0)
(-3.55272e-13 0 0)
(-3.4106e-13 0 0)
(-7.81599e-14 0 0)
(-1.56319e-13 0 0)
(4.26326e-14 0 0)
(2.77112e-13 0 0)
(3.5527e-14 0 0)
(-1.63425e-13 0 0)
(2.84216e-14 0 0)
(-4.9738e-14 0 0)
(-1.63425e-13 0 0)
(-1.13687e-13 0 0)
(-3.5527e-14 0 0)
(-7.10543e-14 0 0)
(-7.10543e-14 0 0)
(4.26325e-14 0 0)
(-7.10547e-15 0 0)
(-6.39489e-14 0 0)
(-4.97379e-14 0 0)
(-1.77636e-13 0 0)
(-2.20268e-13 0 0)
(-2.13163e-13 0 0)
(-7.1054e-15 0 0)
(1.84741e-13 0 0)
(7.81596e-14 0 0)
(-1.63425e-13 0 0)
(-3.97904e-13 0 0)
(-5.47118e-13 0 0)
(-4.76064e-13 0 0)
(-3.90799e-13 0 0)
(-3.55271e-13 0 0)
(-1.77636e-13 0 0)
(5.68433e-14 0 0)
(1.22831e-19 0 0)
(-1.49214e-13 0 0)
(-3.55271e-14 0 0)
(1.20792e-13 0 0)
(2.17188e-20 0 0)
(1.42109e-13 0 0)
(-9.23705e-14 0 0)
(-4.97381e-14 0 0)
(-1.84741e-13 0 0)
(-2.4869e-13 0 0)
(-2.06057e-13 0 0)
(-6.39489e-14 0 0)
(1.77636e-13 0 0)
(4.61853e-13 0 0)
(6.82121e-13 0 0)
(7.17648e-13 0 0)
(5.61329e-13 0 0)
(4.68958e-13 0 0)
(3.69482e-13 0 0)
(1.91847e-13 0 0)
(3.19744e-13 0 0)
(1.91847e-13 0 0)
(2.06057e-13 0 0)
(7.10544e-14 0 0)
(-2.84218e-14 0 0)
(-1.06581e-13 0 0)
(1.56319e-13 0 0)
(2.77112e-13 0 0)
(1.49214e-13 0 0)
(-1.42109e-13 0 0)
(-1.42108e-14 0 0)
(6.39488e-14 0 0)
(8.52652e-14 0 0)
(-1.22709e-19 0 0)
(4.97382e-14 0 0)
(3.05533e-13 0 0)
(2.20268e-13 0 0)
(-2.13163e-13 0 0)
(-1.49214e-13 0 0)
(1.13687e-13 0 0)
(-1.56319e-13 0 0)
(-2.98428e-13 0 0)
(-3.90799e-13 0 0)
(-4.05009e-13 0 0)
(-2.91323e-13 0 0)
(-2.70006e-13 0 0)
(-3.48166e-13 0 0)
(-1.91846e-13 0 0)
(1.35003e-13 0 0)
(3.83693e-13 0 0)
(5.82645e-13 0 0)
(3.62377e-13 0 0)
(1.13687e-13 0 0)
(1.20792e-13 0 0)
(2.20268e-13 0 0)
(1.06581e-13 0 0)
(-7.10542e-15 0 0)
(6.3949e-14 0 0)
(-1.4211e-14 0 0)
(2.13163e-14 0 0)
(-1.56319e-13 0 0)
(-5.68434e-14 0 0)
(4.1922e-13 0 0)
(3.97904e-13 0 0)
(1.56319e-13 0 0)
(6.39489e-14 0 0)
(1.56319e-13 0 0)
(1.06581e-13 0 0)
(1.91846e-13 0 0)
(4.40537e-13 0 0)
(5.82645e-13 0 0)
(4.61853e-13 0 0)
(4.68958e-13 0 0)
(7.03437e-13 0 0)
(5.89751e-13 0 0)
(4.54747e-13 0 0)
(7.03437e-13 0 0)
(6.18172e-13 0 0)
(3.69482e-13 0 0)
(4.26326e-13 0 0)
(1.91847e-13 0 0)
(2.84217e-13 0 0)
(6.3949e-14 0 0)
(-1.13687e-13 0 0)
(-1.27898e-13 0 0)
(1.27898e-13 0 0)
(1.77636e-13 0 0)
(2.13163e-13 0 0)
(7.10557e-15 0 0)
(7.10541e-14 0 0)
(2.41585e-13 0 0)
(4.26326e-14 0 0)
(4.26325e-14 0 0)
(1.84741e-13 0 0)
(5.91642e-20 0 0)
(-7.10544e-14 0 0)
(1.06581e-13 0 0)
(2.84219e-14 0 0)
(3.5527e-14 0 0)
(1.42109e-14 0 0)
(3.55271e-14 0 0)
(-2.13163e-13 0 0)
(-1.56319e-13 0 0)
(-1.84741e-13 0 0)
(-4.26326e-13 0 0)
(-1.63425e-13 0 0)
(7.10543e-14 0 0)
(1.42108e-13 0 0)
(1.42112e-14 0 0)
(-1.06582e-13 0 0)
(-4.68958e-13 0 0)
(-4.12115e-13 0 0)
(-3.55271e-13 0 0)
(-3.12639e-13 0 0)
(-2.41585e-13 0 0)
(-7.81596e-14 0 0)
(4.9738e-14 0 0)
(1.56319e-13 0 0)
(-6.39487e-14 0 0)
(-2.13164e-14 0 0)
(-1.20792e-13 0 0)
(-2.55796e-13 0 0)
(-7.10542e-14 0 0)
(-6.39488e-14 0 0)
(-3.55273e-14 0 0)
(-1.49214e-13 0 0)
(-2.58702e-19 0 0)
(1.42113e-14 0 0)
(1.49214e-13 0 0)
(1.77636e-13 0 0)
(2.70006e-13 0 0)
(-7.10541e-14 0 0)
(-7.81598e-14 0 0)
(-2.27374e-13 0 0)
(-2.84217e-13 0 0)
(-1.56319e-13 0 0)
(1.42109e-14 0 0)
(1.56319e-13 0 0)
(3.19744e-13 0 0)
(4.05009e-13 0 0)
(3.41061e-13 0 0)
(3.41061e-13 0 0)
(3.90798e-13 0 0)
(1.49214e-13 0 0)
(1.56319e-13 0 0)
(1.42109e-13 0 0)
(2.62901e-13 0 0)
(2.4869e-13 0 0)
(-7.81594e-14 0 0)
(1.7053e-13 0 0)
(6.3949e-14 0 0)
(3.62377e-13 0 0)
(4.9738e-13 0 0)
(6.75015e-13 0 0)
(5.8975e-13 0 0)
(7.74492e-13 0 0)
(7.38964e-13 0 0)
(7.38965e-13 0 0)
(9.02389e-13 0 0)
(8.10019e-13 0 0)
(3.33955e-13 0 0)
(2.84217e-13 0 0)
(2.91323e-13 0 0)
(2.91322e-13 0 0)
(3.2685e-13 0 0)
(5.68434e-13 0 0)
(7.60281e-13 0 0)
(8.17124e-13 0 0)
(5.68434e-13 0 0)
(3.19744e-13 0 0)
(2.20268e-13 0 0)
(-1.77636e-13 0 0)
(-3.19744e-13 0 0)
(-2.84217e-13 0 0)
(-2.13163e-14 0 0)
(-1.63425e-13 0 0)
(-2.27374e-13 0 0)
(-2.06057e-13 0 0)
(-6.3949e-14 0 0)
(6.39491e-14 0 0)
(2.84215e-14 0 0)
(-1.98952e-13 0 0)
(-1.98952e-13 0 0)
(-2.91322e-13 0 0)
(-2.41585e-13 0 0)
(-3.55271e-13 0 0)
(-3.41061e-13 0 0)
(-3.55271e-13 0 0)
(-1.7053e-13 0 0)
(-3.05533e-13 0 0)
(-3.76588e-13 0 0)
(-2.70006e-13 0 0)
(-1.06581e-13 0 0)
(2.55795e-13 0 0)
(1.77636e-13 0 0)
(-7.10537e-15 0 0)
(-9.93597e-20 0 0)
(-1.77636e-13 0 0)
(-4.90274e-13 0 0)
(-4.9738e-13 0 0)
(-5.40012e-13 0 0)
(-4.33431e-13 0 0)
(-4.54747e-13 0 0)
(-2.41585e-13 0 0)
(-1.7053e-13 0 0)
(-2.20268e-13 0 0)
(-2.91323e-13 0 0)
(-1.84741e-13 0 0)
(-2.84217e-13 0 0)
(-3.97904e-13 0 0)
(-1.06582e-13 0 0)
(-9.94758e-14 0 0)
(-4.26327e-14 0 0)
(-3.55271e-13 0 0)
(-5.8975e-13 0 0)
(-6.32383e-13 0 0)
(-4.83169e-13 0 0)
(-2.77112e-13 0 0)
(-2.55795e-13 0 0)
(5.68434e-14 0 0)
(3.83693e-13 0 0)
(5.47118e-13 0 0)
(6.46594e-13 0 0)
(6.25278e-13 0 0)
(5.25802e-13 0 0)
(6.46594e-13 0 0)
(5.82645e-13 0 0)
(3.55272e-13 0 0)
(2.55795e-13 0 0)
(-1.42109e-13 0 0)
(-3.5527e-14 0 0)
(2.70006e-13 0 0)
(1.63425e-13 0 0)
(2.06057e-13 0 0)
(1.7053e-13 0 0)
(-7.10544e-14 0 0)
(6.39489e-14 0 0)
(7.10544e-14 0 0)
(-7.10545e-14 0 0)
(-1.91846e-13 0 0)
(1.84741e-13 0 0)
(3.19744e-13 0 0)
(1.63425e-13 0 0)
(1.20792e-13 0 0)
(1.63425e-13 0 0)
(1.63425e-13 0 0)
(1.91847e-13 0 0)
(2.27374e-13 0 0)
(1.77636e-13 0 0)
(2.34479e-13 0 0)
(2.70006e-13 0 0)
(1.63425e-13 0 0)
(5.68434e-14 0 0)
(-2.84217e-14 0 0)
(-2.55795e-13 0 0)
(-3.55272e-13 0 0)
(-3.55271e-13 0 0)
(-1.35003e-13 0 0)
(-3.62377e-13 0 0)
(-1.35003e-13 0 0)
(-1.06581e-13 0 0)
(-4.47642e-13 0 0)
(-4.26326e-13 0 0)
(-3.48166e-13 0 0)
(-4.54747e-13 0 0)
(-7.81597e-13 0 0)
(-5.61329e-13 0 0)
(-3.76588e-13 0 0)
(-5.82645e-13 0 0)
(-4.76064e-13 0 0)
(-5.04485e-13 0 0)
(-4.1922e-13 0 0)
(-3.33955e-13 0 0)
(-2.98428e-13 0 0)
(-3.05533e-13 0 0)
(-3.4106e-13 0 0)
(-4.47642e-13 0 0)
(-6.46594e-13 0 0)
(-6.75016e-13 0 0)
(-4.61853e-13 0 0)
(-5.11591e-13 0 0)
(-2.34479e-13 0 0)
(7.81598e-14 0 0)
(-1.77636e-13 0 0)
(-2.06057e-13 0 0)
(-3.55272e-14 0 0)
(-8.5265e-14 0 0)
(-3.05534e-13 0 0)
(-2.84216e-14 0 0)
(2.06057e-13 0 0)
(-2.84217e-14 0 0)
(4.26329e-14 0 0)
(1.49214e-13 0 0)
(2.13163e-13 0 0)
(5.61329e-13 0 0)
(7.67386e-13 0 0)
(9.02389e-13 0 0)
(6.32383e-13 0 0)
(5.61329e-13 0 0)
(7.31859e-13 0 0)
(8.31335e-13 0 0)
(6.32383e-13 0 0)
(6.39488e-13 0 0)
(2.98428e-13 0 0)
(-9.23705e-14 0 0)
(-1.91846e-13 0 0)
(-1.49214e-13 0 0)
(-2.06057e-13 0 0)
(-3.55272e-13 0 0)
(-2.84217e-13 0 0)
(-1.77636e-13 0 0)
(8.52652e-14 0 0)
(1.42109e-13 0 0)
(-1.77636e-13 0 0)
(-4.83169e-13 0 0)
(-6.11067e-13 0 0)
(-6.82121e-13 0 0)
(-6.03962e-13 0 0)
(-5.40012e-13 0 0)
(-5.47118e-13 0 0)
(-6.11067e-13 0 0)
(-5.82645e-13 0 0)
(-7.03437e-13 0 0)
(-9.37916e-13 0 0)
(-8.59757e-13 0 0)
(-8.81073e-13 0 0)
(-8.02914e-13 0 0)
(-8.52651e-13 0 0)
(-7.95808e-13 0 0)
(-6.6791e-13 0 0)
(-5.40013e-13 0 0)
(-5.18696e-13 0 0)
(-4.40536e-13 0 0)
(-3.76588e-13 0 0)
(-5.18696e-13 0 0)
(-4.68958e-13 0 0)
(-6.89226e-13 0 0)
(-5.61329e-13 0 0)
(-7.24753e-13 0 0)
(-7.81597e-13 0 0)
(-8.17124e-13 0 0)
(-1.00187e-12 0 0)
(-1.10134e-12 0 0)
(-1.52056e-12 0 0)
(-1.71951e-12 0 0)
(-1.75504e-12 0 0)
(-1.69109e-12 0 0)
(-1.85452e-12 0 0)
(-1.74794e-12 0 0)
(-1.28608e-12 0 0)
(-2.98428e-13 0 0)
(2.05347e-12 0 0)
(6.71463e-12 0 0)
(1.67617e-11 0 0)
(3.8284e-11 0 0)
(8.37304e-11 0 0)
(1.79298e-10 0 0)
(3.78442e-10 0 0)
(7.91047e-10 0 0)
(1.63696e-09 0 0)
(3.35493e-09 0 0)
(6.81371e-09 0 0)
(1.37126e-08 0 0)
(2.73429e-08 0 0)
(5.40125e-08 0 0)
(1.05685e-07 0 0)
(2.04806e-07 0 0)
(3.9302e-07 0 0)
(7.46729e-07 0 0)
(1.40449e-06 0 0)
(2.61462e-06 0 0)
(4.81683e-06 0 0)
(8.78012e-06 0 0)
(1.58325e-05 0 0)
(2.82375e-05 0 0)
(4.98027e-05 0 0)
(8.68448e-05 0 0)
(0.000149698 0 0)
(0.000255022 0 0)
(0.000429281 0 0)
(0.000713868 0 0)
(0.0011725 0 0)
(0.00190164 0 0)
(0.00304489 0 0)
(0.00481222 0 0)
(0.00750503 0 0)
(0.0115477 0 0)
(0.0175259 0 0)
(0.0262309 0 0)
(0.0387085 0 0)
(0.0563085 0 0)
(0.0807315 0 0)
(0.114064 0 0)
(0.158793 0 0)
(0.217802 0 0)
(0.294317 0 0)
(0.391827 0 0)
(0.513952 0 0)
(0.664278 0 0)
(0.846161 0 0)
(1.06252 0 0)
(1.31564 0 0)
(1.60698 0 0)
(1.9371 0 0)
(2.30557 0 0)
(2.71097 0 0)
(3.15104 0 0)
(3.62281 0 0)
(4.12278 0 0)
(4.6472 0 0)
(5.19225 0 0)
(5.75425 0 0)
(6.32986 0 0)
(6.91614 0 0)
(7.51062 0 0)
(8.11132 0 0)
(8.71672 0 0)
(9.32566 0 0)
(9.93731 0 0)
(10.5511 0 0)
(11.1667 0 0)
(11.7837 0 0)
(12.4021 0 0)
(13.0217 0 0)
(13.6425 0 0)
(14.2644 0 0)
(14.8875 0 0)
(15.5118 0 0)
(16.1372 0 0)
(16.7639 0 0)
(17.3918 0 0)
(18.0211 0 0)
(18.6517 0 0)
(19.2838 0 0)
(19.9174 0 0)
(20.5527 0 0)
(21.1896 0 0)
(21.8282 0 0)
(22.4688 0 0)
(23.1112 0 0)
(23.7557 0 0)
(24.4023 0 0)
(25.0511 0 0)
(25.7021 0 0)
(26.3555 0 0)
(27.0113 0 0)
(27.6696 0 0)
(28.3305 0 0)
(28.9939 0 0)
(29.66 0 0)
(30.3288 0 0)
(31.0004 0 0)
(31.6748 0 0)
(32.352 0 0)
(33.0322 0 0)
(33.7153 0 0)
(34.4013 0 0)
(35.0904 0 0)
(35.7823 0 0)
(36.4771 0 0)
(37.1747 0 0)
(37.875 0 0)
(38.5778 0 0)
(39.2833 0 0)
(39.9912 0 0)
(40.7018 0 0)
(41.4147 0 0)
(42.1306 0 0)
(42.8479 0 0)
(43.5701 0 0)
(44.2901 0 0)
(45.0228 0 0)
(45.7385 0 0)
(46.4939 0 0)
(47.1869 0 0)
(47.9916 0 0)
(48.6281 0 0)
(49.5189 0 0)
(50.0703 0 0)
(51.0532 0 0)
(51.5504 0 0)
(52.5624 0 0)
(53.0716 0 0)
(54.0786 0 0)
(54.5941 0 0)
(55.6155 0 0)
(56.1252 0 0)
(57.147 0 0)
(57.6583 0 0)
(58.6498 0 0)
(59.1352 0 0)
(60.6922 0 0)
)
;

boundaryField
{
    sideLeft
    {
        type            symmetryPlane;
    }
    sideRight
    {
        type            calculated;
        value           uniform (60.3467 0 0);
    }
    topbottom
    {
        type            empty;
    }
    frontback
    {
        type            empty;
    }
}


// ************************************************************************* //
