/*--------------------------------*- C++ -*----------------------------------*\
| =========                 |                                                 |
| \\      /  F ield         | OpenFOAM: The Open Source CFD Toolbox           |
|  \\    /   O peration     | Version:  2.4.0                                 |
|   \\  /    A nd           | Web:      www.OpenFOAM.org                      |
|    \\/     M anipulation  |                                                 |
\*---------------------------------------------------------------------------*/
FoamFile
{
    version     2.0;
    format      ascii;
    class       volVectorField;
    location    "0.03";
    object      U.airMean;
}
// * * * * * * * * * * * * * * * * * * * * * * * * * * * * * * * * * * * * * //

dimensions      [0 1 -1 0 0 0 0];

internalField   nonuniform List<vector> 
1000
(
(-5.97802e-14 0 0)
(-2.12452e-14 0 0)
(-2.36137e-14 0 0)
(-7.8164e-16 0 0)
(-5.48775e-14 0 0)
(5.23669e-14 0 0)
(-2.05583e-14 0 0)
(1.25526e-15 0 0)
(-2.20267e-15 0 0)
(1.46609e-14 0 0)
(-1.04215e-15 0 0)
(-5.89513e-14 0 0)
(1.1487e-14 0 0)
(-2.90611e-14 0 0)
(-5.92133e-16 0 0)
(5.2343e-15 0 0)
(-2.86582e-15 0 0)
(2.91319e-15 0 0)
(1.23634e-14 0 0)
(-3.18322e-14 0 0)
(5.35274e-14 0 0)
(-8.78696e-15 0 0)
(3.71613e-14 0 0)
(-2.60058e-14 0 0)
(-3.20929e-14 0 0)
(-5.98277e-14 0 0)
(-1.70767e-14 0 0)
(-9.21343e-15 0 0)
(-8.0457e-14 0 0)
(9.4738e-15 0 0)
(-4.66115e-14 0 0)
(-4.61379e-14 0 0)
(-2.48697e-15 0 0)
(-1.54187e-14 0 0)
(1.60819e-14 0 0)
(-5.81933e-14 0 0)
(3.77771e-14 0 0)
(-5.76012e-14 0 0)
(1.44474e-15 0 0)
(-1.81898e-14 0 0)
(4.91221e-14 0 0)
(-1.26713e-14 0 0)
(2.32821e-14 0 0)
(2.91796e-14 0 0)
(5.18222e-14 0 0)
(5.48302e-14 0 0)
(3.95062e-14 0 0)
(6.16277e-14 0 0)
(5.88329e-14 0 0)
(4.30589e-14 0 0)
(-1.39976e-14 0 0)
(6.28356e-14 0 0)
(6.3191e-14 0 0)
(9.88601e-14 0 0)
(8.35836e-14 0 0)
(1.19111e-13 0 0)
(1.1525e-13 0 0)
(1.19584e-13 0 0)
(8.99311e-14 0 0)
(1.18542e-13 0 0)
(6.9728e-14 0 0)
(1.18945e-13 0 0)
(1.08879e-13 0 0)
(1.02342e-13 0 0)
(1.53596e-13 0 0)
(1.42298e-13 0 0)
(1.72401e-13 0 0)
(1.27661e-13 0 0)
(8.28256e-14 0 0)
(1.01015e-13 0 0)
(1.61068e-15 0 0)
(5.06616e-14 0 0)
(-1.31686e-14 0 0)
(2.07242e-14 0 0)
(-7.0818e-15 0 0)
(-5.0401e-14 0 0)
(4.70141e-14 0 0)
(-5.86434e-14 0 0)
(-2.47269e-14 0 0)
(-5.35512e-14 0 0)
(-1.09424e-14 0 0)
(-2.73086e-14 0 0)
(-4.19219e-14 0 0)
(-1.04924e-14 0 0)
(-4.99985e-14 0 0)
(-6.58442e-15 0 0)
(-4.73458e-14 0 0)
(-1.58451e-14 0 0)
(-4.77485e-14 0 0)
(-8.25176e-14 0 0)
(-3.29224e-15 0 0)
(-3.42955e-14 0 0)
(-3.41297e-14 0 0)
(-1.00187e-14 0 0)
(7.62647e-15 0 0)
(5.6038e-14 0 0)
(-2.78295e-14 0 0)
(6.24329e-14 0 0)
(-1.70526e-15 0 0)
(1.51109e-14 0 0)
(-3.77535e-14 0 0)
(-1.44951e-14 0 0)
(-3.36797e-14 0 0)
(-5.03775e-14 0 0)
(-7.66676e-14 0 0)
(-1.10276e-13 0 0)
(-5.99226e-14 0 0)
(-1.26571e-13 0 0)
(-1.301e-13 0 0)
(-1.13876e-13 0 0)
(-1.36495e-13 0 0)
(-9.6397e-14 0 0)
(-1.01821e-13 0 0)
(-6.7478e-14 0 0)
(-1.03502e-13 0 0)
(-1.36637e-13 0 0)
(-5.79804e-14 0 0)
(-4.09746e-14 0 0)
(-2.9606e-14 0 0)
(-3.60956e-14 0 0)
(-2.6669e-14 0 0)
(2.98428e-14 0 0)
(3.31629e-16 0 0)
(2.29032e-14 0 0)
(3.67824e-14 0 0)
(4.90985e-14 0 0)
(4.85064e-14 0 0)
(2.02031e-14 0 0)
(3.95535e-14 0 0)
(-4.68247e-14 0 0)
(1.62951e-14 0 0)
(-5.44986e-14 0 0)
(-5.99461e-14 0 0)
(-6.48963e-14 0 0)
(-5.12538e-14 0 0)
(-9.391e-14 0 0)
(-7.62412e-14 0 0)
(-7.08411e-14 0 0)
(-2.70244e-14 0 0)
(-7.45832e-14 0 0)
(-4.47879e-14 0 0)
(-4.20167e-14 0 0)
(-7.23806e-14 0 0)
(-3.77535e-14 0 0)
(-6.34277e-14 0 0)
(-4.38177e-15 0 0)
(-4.05483e-14 0 0)
(-2.35664e-14 0 0)
(-3.43666e-14 0 0)
(-3.99562e-14 0 0)
(-6.49909e-14 0 0)
(-4.49063e-14 0 0)
(-5.47118e-14 0 0)
(-4.46221e-14 0 0)
(-1.87347e-14 0 0)
(-1.80951e-14 0 0)
(1.79293e-14 0 0)
(-8.88178e-15 0 0)
(-3.66877e-14 0 0)
(-5.99461e-14 0 0)
(-9.52364e-14 0 0)
(-4.43142e-14 0 0)
(-5.7246e-14 0 0)
(-7.27126e-15 0 0)
(-2.15058e-14 0 0)
(-1.87109e-14 0 0)
(-1.42115e-15 0 0)
(1.32633e-15 0 0)
(3.33955e-14 0 0)
(-3.47692e-14 0 0)
(2.70006e-14 0 0)
(-2.10794e-14 0 0)
(1.77633e-15 0 0)
(6.03959e-15 0 0)
(-7.99123e-14 0 0)
(-1.21978e-14 0 0)
(-9.63258e-14 0 0)
(-4.32248e-14 0 0)
(-1.28821e-13 0 0)
(-8.87231e-14 0 0)
(-9.256e-14 0 0)
(-5.72224e-14 0 0)
(-7.19543e-14 0 0)
(-9.30337e-14 0 0)
(-1.67689e-14 0 0)
(-7.85623e-14 0 0)
(-1.34531e-14 0 0)
(-1.16908e-13 0 0)
(5.23416e-15 0 0)
(-7.23805e-14 0 0)
(-4.95959e-14 0 0)
(-6.987e-14 0 0)
(-1.01135e-14 0 0)
(-5.12538e-14 0 0)
(-5.98987e-14 0 0)
(-4.38168e-14 0 0)
(-5.28407e-14 0 0)
(-5.86198e-14 0 0)
(-8.29676e-14 0 0)
(-2.28085e-14 0 0)
(-2.5319e-14 0 0)
(-9.00494e-14 0 0)
(-3.01507e-14 0 0)
(-3.01507e-14 0 0)
(-1.17477e-14 0 0)
(-1.34292e-14 0 0)
(1.59871e-14 0 0)
(-4.08798e-14 0 0)
(-1.91373e-14 0 0)
(-1.03029e-14 0 0)
(2.76401e-14 0 0)
(-3.55266e-15 0 0)
(2.10083e-14 0 0)
(3.0506e-14 0 0)
(3.86062e-14 0 0)
(6.48962e-14 0 0)
(1.20556e-14 0 0)
(3.61902e-14 0 0)
(-3.31467e-16 0 0)
(6.80462e-14 0 0)
(2.44664e-14 0 0)
(3.50771e-14 0 0)
(2.90612e-14 0 0)
(4.52852e-14 0 0)
(-1.29318e-14 0 0)
(7.69518e-14 0 0)
(6.81647e-14 0 0)
(3.99326e-14 0 0)
(1.14895e-13 0 0)
(7.42991e-14 0 0)
(4.94775e-14 0 0)
(6.51567e-14 0 0)
(1.76452e-14 0 0)
(9.17073e-14 0 0)
(5.22486e-14 0 0)
(7.09595e-14 0 0)
(2.10085e-14 0 0)
(2.60296e-14 0 0)
(2.0582e-14 0 0)
(-3.62371e-15 0 0)
(5.91881e-14 0 0)
(3.06955e-14 0 0)
(-8.14748e-15 0 0)
(6.76436e-14 0 0)
(3.07191e-14 0 0)
(6.30014e-14 0 0)
(3.70667e-14 0 0)
(5.29118e-14 0 0)
(6.70752e-14 0 0)
(9.59469e-14 0 0)
(1.73611e-14 0 0)
(7.88227e-14 0 0)
(2.0819e-14 0 0)
(-6.79749e-15 0 0)
(2.52953e-14 0 0)
(7.98184e-15 0 0)
(4.12825e-14 0 0)
(7.46073e-15 0 0)
(6.60093e-14 0 0)
(-3.92692e-14 0 0)
(7.89648e-14 0 0)
(-2.97243e-14 0 0)
(3.81318e-15 0 0)
(-3.72325e-14 0 0)
(-6.19119e-14 0 0)
(-3.64746e-14 0 0)
(-7.19779e-14 0 0)
(-5.6204e-14 0 0)
(-1.00115e-13 0 0)
(-1.13521e-13 0 0)
(-1.21716e-13 0 0)
(-9.83391e-14 0 0)
(-1.07221e-13 0 0)
(-1.00044e-13 0 0)
(-9.94523e-14 0 0)
(-7.69281e-14 0 0)
(-1.1146e-13 0 0)
(-1.64373e-14 0 0)
(-9.00731e-14 0 0)
(-4.59721e-14 0 0)
(-4.57826e-14 0 0)
(-3.98141e-14 0 0)
(-5.61329e-14 0 0)
(-1.04544e-13 0 0)
(1.24344e-14 0 0)
(-5.32433e-14 0 0)
(1.15344e-14 0 0)
(-6.61514e-14 0 0)
(-6.82123e-15 0 0)
(-7.95809e-15 0 0)
(-2.17901e-15 0 0)
(1.53951e-14 0 0)
(4.97382e-15 0 0)
(-2.56743e-14 0 0)
(-3.07665e-14 0 0)
(1.01844e-14 0 0)
(-3.21164e-14 0 0)
(5.2888e-14 0 0)
(2.00846e-14 0 0)
(2.55085e-14 0 0)
(7.0699e-14 0 0)
(7.51044e-14 0 0)
(1.37348e-13 0 0)
(1.14634e-13 0 0)
(8.73495e-14 0 0)
(1.6577e-13 0 0)
(1.11342e-13 0 0)
(1.75836e-13 0 0)
(1.16008e-13 0 0)
(1.41706e-13 0 0)
(1.30621e-13 0 0)
(1.04734e-13 0 0)
(1.21313e-13 0 0)
(9.52601e-14 0 0)
(1.30171e-13 0 0)
(1.43056e-13 0 0)
(1.49498e-13 0 0)
(1.41493e-13 0 0)
(1.59967e-13 0 0)
(1.3614e-13 0 0)
(1.59801e-13 0 0)
(1.3723e-13 0 0)
(2.07952e-13 0 0)
(1.38461e-13 0 0)
(1.5459e-13 0 0)
(1.0606e-13 0 0)
(8.18546e-14 0 0)
(9.96891e-14 0 0)
(7.72597e-14 0 0)
(8.19019e-14 0 0)
(9.62549e-14 0 0)
(1.12076e-13 0 0)
(8.58336e-14 0 0)
(1.49593e-13 0 0)
(6.78333e-14 0 0)
(1.17737e-13 0 0)
(7.0249e-14 0 0)
(6.05146e-14 0 0)
(7.16701e-14 0 0)
(9.47627e-14 0 0)
(6.1462e-14 0 0)
(9.04757e-14 0 0)
(5.60855e-14 0 0)
(1.88294e-14 0 0)
(4.78905e-14 0 0)
(-1.2316e-14 0 0)
(5.82881e-14 0 0)
(-3.59297e-14 0 0)
(2.66689e-14 0 0)
(-2.87295e-14 0 0)
(4.94999e-15 0 0)
(-6.03013e-14 0 0)
(1.82371e-15 0 0)
(-8.76273e-16 0 0)
(5.13248e-14 0 0)
(4.13298e-14 0 0)
(-4.24666e-14 0 0)
(3.23059e-14 0 0)
(-4.93826e-14 0 0)
(-2.76875e-14 0 0)
(-4.91932e-14 0 0)
(-4.358e-14 0 0)
(-7.18358e-14 0 0)
(-5.89987e-14 0 0)
(-4.43616e-14 0 0)
(-7.6786e-14 0 0)
(-1.04805e-13 0 0)
(-9.09495e-14 0 0)
(-1.2264e-13 0 0)
(-1.10063e-13 0 0)
(-8.26125e-14 0 0)
(-8.64968e-14 0 0)
(-1.35524e-13 0 0)
(-1.33369e-13 0 0)
(-1.53477e-13 0 0)
(-7.83493e-14 0 0)
(-1.15155e-13 0 0)
(-8.3702e-14 0 0)
(-1.37206e-13 0 0)
(-7.04859e-14 0 0)
(-1.30029e-13 0 0)
(-5.87856e-14 0 0)
(-7.87991e-14 0 0)
(-8.05992e-14 0 0)
(-6.24568e-14 0 0)
(-1.31592e-13 0 0)
(-3.98378e-14 0 0)
(-1.02294e-13 0 0)
(-3.76115e-14 0 0)
(-1.03858e-13 0 0)
(-6.44936e-14 0 0)
(-5.89514e-14 0 0)
(-6.34278e-14 0 0)
(-1.08239e-13 0 0)
(-2.43481e-14 0 0)
(-8.10018e-14 0 0)
(-3.87957e-14 0 0)
(-5.4238e-14 0 0)
(-8.55025e-15 0 0)
(-1.01845e-14 0 0)
(-3.17612e-14 0 0)
(-2.22164e-14 0 0)
(-8.51703e-14 0 0)
(-1.87584e-14 0 0)
(-4.26089e-14 0 0)
(-5.91882e-14 0 0)
(-2.64086e-14 0 0)
(-6.35461e-14 0 0)
(-3.44614e-14 0 0)
(-4.73695e-14 0 0)
(-4.84827e-14 0 0)
(-2.52243e-14 0 0)
(-5.23196e-14 0 0)
(-3.47929e-14 0 0)
(-3.16665e-14 0 0)
(-4.4859e-14 0 0)
(-3.30166e-14 0 0)
(-2.78296e-14 0 0)
(-9.36257e-14 0 0)
(1.39502e-14 0 0)
(-4.99274e-14 0 0)
(-4.80564e-14 0 0)
(-1.32871e-13 0 0)
(-6.67911e-14 0 0)
(-1.24724e-13 0 0)
(-9.81969e-14 0 0)
(-3.91509e-14 0 0)
(-4.57116e-14 0 0)
(-1.21504e-14 0 0)
(-8.58571e-14 0 0)
(-5.58977e-15 0 0)
(-8.72782e-14 0 0)
(-6.6341e-14 0 0)
(-3.0506e-14 0 0)
(-6.4162e-14 0 0)
(-9.02152e-14 0 0)
(-8.01492e-14 0 0)
(-1.23824e-13 0 0)
(-8.25177e-14 0 0)
(-1.23729e-13 0 0)
(-8.39625e-14 0 0)
(-1.15866e-13 0 0)
(-1.33866e-13 0 0)
(-6.65069e-14 0 0)
(-1.01252e-13 0 0)
(-6.53463e-14 0 0)
(-1.03929e-13 0 0)
(-3.08139e-14 0 0)
(-5.81224e-14 0 0)
(-8.39624e-14 0 0)
(-7.5886e-14 0 0)
(-1.03194e-13 0 0)
(-3.55509e-14 0 0)
(-5.61566e-14 0 0)
(-1.02294e-13 0 0)
(-7.26412e-14 0 0)
(-1.05823e-13 0 0)
(-1.13284e-13 0 0)
(-9.29627e-14 0 0)
(-1.42985e-13 0 0)
(-9.69892e-14 0 0)
(-1.73562e-13 0 0)
(-1.38603e-13 0 0)
(-1.76854e-13 0 0)
(-1.65817e-13 0 0)
(-2.15058e-13 0 0)
(-2.13305e-13 0 0)
(-1.87939e-13 0 0)
(-1.48243e-13 0 0)
(-1.94073e-13 0 0)
(-1.48243e-13 0 0)
(-2.0466e-13 0 0)
(-1.71383e-13 0 0)
(-1.96512e-13 0 0)
(-2.31613e-13 0 0)
(-1.55562e-13 0 0)
(-2.10984e-13 0 0)
(-1.19869e-13 0 0)
(-1.45922e-13 0 0)
(-9.31995e-14 0 0)
(-6.36646e-14 0 0)
(-5.74119e-14 0 0)
(-9.79838e-14 0 0)
(-2.39927e-14 0 0)
(-3.18323e-14 0 0)
(-6.84252e-14 0 0)
(-1.26714e-14 0 0)
(-6.42093e-14 0 0)
(-4.12825e-14 0 0)
(-3.12165e-14 0 0)
(-2.43958e-15 0 0)
(-5.16329e-15 0 0)
(-1.27424e-14 0 0)
(-4.5001e-14 0 0)
(-4.07852e-14 0 0)
(-5.2296e-14 0 0)
(-7.42991e-14 0 0)
(-8.52651e-14 0 0)
(-1.00542e-13 0 0)
(-3.19981e-14 0 0)
(-4.61142e-14 0 0)
(-3.95062e-14 0 0)
(-3.78482e-14 0 0)
(-5.14906e-14 0 0)
(-2.59349e-14 0 0)
(-3.36561e-14 0 0)
(-5.61565e-14 0 0)
(-6.6555e-15 0 0)
(-4.54036e-14 0 0)
(-4.4054e-15 0 0)
(-1.55135e-14 0 0)
(2.42058e-14 0 0)
(1.87346e-14 0 0)
(2.85638e-14 0 0)
(2.99376e-14 0 0)
(7.83018e-14 0 0)
(6.21962e-14 0 0)
(1.13734e-13 0 0)
(1.03526e-13 0 0)
(1.02792e-13 0 0)
(8.66152e-14 0 0)
(1.40474e-13 0 0)
(1.12905e-13 0 0)
(1.35122e-13 0 0)
(1.53785e-13 0 0)
(1.26642e-13 0 0)
(1.24108e-13 0 0)
(9.53786e-14 0 0)
(1.44809e-13 0 0)
(1.01631e-13 0 0)
(1.58546e-13 0 0)
(9.94998e-14 0 0)
(1.56035e-13 0 0)
(1.19205e-13 0 0)
(2.23537e-13 0 0)
(1.55585e-13 0 0)
(1.97436e-13 0 0)
(1.52648e-13 0 0)
(8.95758e-14 0 0)
(8.10255e-14 0 0)
(3.70194e-14 0 0)
(5.8217e-14 0 0)
(-7.05799e-15 0 0)
(3.25665e-14 0 0)
(-1.34292e-14 0 0)
(3.4343e-15 0 0)
(8.17119e-15 0 0)
(2.3448e-15 0 0)
(-4.808e-14 0 0)
(-1.5253e-14 0 0)
(-2.07478e-14 0 0)
(-2.99849e-14 0 0)
(-2.21926e-14 0 0)
(-2.3661e-14 0 0)
(1.59635e-14 0 0)
(1.94221e-15 0 0)
(2.5319e-14 0 0)
(4.23964e-15 0 0)
(9.37679e-14 0 0)
(2.98191e-14 0 0)
(1.84978e-14 0 0)
(3.58113e-14 0 0)
(-5.75532e-15 0 0)
(1.91609e-14 0 0)
(-9.09491e-15 0 0)
(-2.79242e-14 0 0)
(4.18509e-14 0 0)
(1.29082e-14 0 0)
(1.96347e-14 0 0)
(3.19744e-14 0 0)
(4.61852e-14 0 0)
(1.53477e-14 0 0)
(-2.08426e-14 0 0)
(-2.79953e-14 0 0)
(-2.72848e-14 0 0)
(-2.99849e-14 0 0)
(-1.88768e-14 0 0)
(-4.48826e-14 0 0)
(-5.36459e-14 0 0)
(-4.29168e-14 0 0)
(-1.94689e-14 0 0)
(-2.41111e-14 0 0)
(-4.47168e-14 0 0)
(-3.45325e-14 0 0)
(-6.88042e-14 0 0)
(-8.74441e-14 0 0)
(-1.25032e-13 0 0)
(-8.00308e-14 0 0)
(-1.07529e-13 0 0)
(-1.04118e-13 0 0)
(-1.45188e-13 0 0)
(-9.08784e-14 0 0)
(-1.19726e-13 0 0)
(-9.81023e-14 0 0)
(-7.84913e-14 0 0)
(-8.50757e-14 0 0)
(-1.03858e-13 0 0)
(-3.18324e-14 0 0)
(-5.4546e-14 0 0)
(-4.98327e-14 0 0)
(-2.58164e-14 0 0)
(-5.25565e-14 0 0)
(-5.4617e-14 0 0)
(-1.50635e-14 0 0)
(-2.03452e-14 0 0)
(-5.73407e-14 0 0)
(-3.29222e-15 0 0)
(-4.49537e-14 0 0)
(-4.05719e-14 0 0)
(-3.51482e-14 0 0)
(-4.80804e-15 0 0)
(-5.94489e-15 0 0)
(-3.33955e-14 0 0)
(7.03437e-15 0 0)
(2.29505e-14 0 0)
(6.0704e-14 0 0)
(-7.60271e-15 0 0)
(1.40664e-13 0 0)
(3.12165e-14 0 0)
(4.34379e-14 0 0)
(7.45123e-14 0 0)
(1.07552e-13 0 0)
(1.21171e-13 0 0)
(1.0985e-13 0 0)
(1.36093e-13 0 0)
(1.47674e-13 0 0)
(1.15369e-13 0 0)
(1.66433e-13 0 0)
(1.3569e-13 0 0)
(2.53024e-13 0 0)
(2.04589e-13 0 0)
(2.03121e-13 0 0)
(2.26687e-13 0 0)
(1.24156e-13 0 0)
(1.90544e-13 0 0)
(6.69096e-14 0 0)
(2.42627e-13 0 0)
(1.38224e-13 0 0)
(1.88554e-13 0 0)
(1.44596e-13 0 0)
(1.88365e-13 0 0)
(1.5947e-13 0 0)
(1.91775e-13 0 0)
(1.62904e-13 0 0)
(1.37419e-13 0 0)
(1.32043e-13 0 0)
(1.91065e-13 0 0)
(1.80123e-13 0 0)
(1.19466e-13 0 0)
(1.45543e-13 0 0)
(1.59967e-13 0 0)
(1.60156e-13 0 0)
(1.65935e-13 0 0)
(1.53146e-13 0 0)
(1.09968e-13 0 0)
(1.90117e-13 0 0)
(8.47442e-14 0 0)
(2.01083e-13 0 0)
(1.26571e-13 0 0)
(1.67878e-13 0 0)
(1.36472e-13 0 0)
(2.1501e-13 0 0)
(1.76049e-13 0 0)
(1.238e-13 0 0)
(2.04423e-13 0 0)
(1.74462e-13 0 0)
(1.76617e-13 0 0)
(1.66314e-13 0 0)
(1.60464e-13 0 0)
(2.05939e-13 0 0)
(1.44122e-13 0 0)
(1.60298e-13 0 0)
(1.24392e-13 0 0)
(1.82373e-13 0 0)
(1.32729e-13 0 0)
(1.24061e-13 0 0)
(7.23333e-14 0 0)
(6.03962e-14 0 0)
(3.25428e-14 0 0)
(1.27897e-14 0 0)
(-4.21589e-14 0 0)
(-7.34464e-14 0 0)
(-7.09358e-14 0 0)
(-8.8581e-14 0 0)
(-1.13426e-13 0 0)
(-1.82017e-13 0 0)
(-1.3029e-13 0 0)
(-2.02268e-13 0 0)
(-1.04308e-13 0 0)
(-1.8628e-13 0 0)
(-8.82496e-14 0 0)
(-1.77872e-13 0 0)
(-1.22095e-13 0 0)
(-1.38058e-13 0 0)
(-1.0831e-13 0 0)
(-1.29911e-13 0 0)
(-1.26524e-13 0 0)
(-8.30388e-14 0 0)
(-9.26311e-14 0 0)
(-1.06013e-13 0 0)
(-1.00423e-13 0 0)
(-8.57388e-14 0 0)
(-1.26334e-13 0 0)
(-1.32445e-13 0 0)
(-1.04142e-13 0 0)
(-1.4398e-13 0 0)
(-1.98478e-13 0 0)
(-1.37466e-13 0 0)
(-1.88246e-13 0 0)
(-1.14634e-13 0 0)
(-2.01747e-13 0 0)
(-1.24629e-13 0 0)
(-1.56959e-13 0 0)
(-1.42061e-13 0 0)
(-1.1075e-13 0 0)
(-7.48439e-14 0 0)
(-4.21352e-14 0 0)
(-1.12289e-13 0 0)
(1.8236e-15 0 0)
(-8.54071e-14 0 0)
(-1.97295e-14 0 0)
(-3.90799e-14 0 0)
(-7.19542e-14 0 0)
(-3.40588e-14 0 0)
(-4.12351e-14 0 0)
(-3.01507e-14 0 0)
(-4.50721e-14 0 0)
(-3.24481e-14 0 0)
(-6.12251e-14 0 0)
(-7.93439e-14 0 0)
(-6.89937e-14 0 0)
(-6.87332e-14 0 0)
(-8.91258e-14 0 0)
(-9.69417e-14 0 0)
(-6.75726e-14 0 0)
(-1.12479e-13 0 0)
(-1.92321e-14 0 0)
(-5.92593e-14 0 0)
(-6.49909e-14 0 0)
(-1.79294e-14 0 0)
(2.22631e-15 0 0)
(1.12029e-14 0 0)
(-5.89741e-15 0 0)
(3.99087e-14 0 0)
(4.12116e-15 0 0)
(1.30273e-15 0 0)
(9.28442e-14 0 0)
(5.41671e-14 0 0)
(8.58335e-14 0 0)
(5.78145e-14 0 0)
(5.51144e-14 0 0)
(4.09984e-14 0 0)
(6.7691e-14 0 0)
(6.76437e-14 0 0)
(6.57015e-14 0 0)
(8.66862e-14 0 0)
(6.24804e-14 0 0)
(9.41705e-14 0 0)
(6.81885e-14 0 0)
(8.73731e-14 0 0)
(7.32096e-14 0 0)
(6.16041e-14 0 0)
(5.33618e-14 0 0)
(8.52414e-14 0 0)
(6.86999e-16 0 0)
(8.96941e-14 0 0)
(2.05347e-14 0 0)
(-5.99223e-15 0 0)
(-1.49451e-14 0 0)
(-3.94351e-14 0 0)
(-7.30201e-14 0 0)
(-7.9723e-14 0 0)
(-1.08855e-13 0 0)
(-1.12858e-13 0 0)
(-1.3434e-13 0 0)
(-8.97889e-14 0 0)
(-8.97889e-14 0 0)
(-8.81783e-14 0 0)
(-4.24432e-14 0 0)
(-5.81461e-14 0 0)
(-4.04063e-14 0 0)
(-8.37729e-14 0 0)
(-8.08598e-14 0 0)
(-9.81259e-14 0 0)
(-9.57811e-14 0 0)
(-6.29304e-14 0 0)
(-7.89176e-14 0 0)
(-6.52278e-14 0 0)
(-9.09494e-14 0 0)
(-6.9728e-14 0 0)
(-8.986e-14 0 0)
(-6.69568e-14 0 0)
(-7.45832e-14 0 0)
(-2.70244e-14 0 0)
(-4.01929e-14 0 0)
(5.47827e-14 0 0)
(1.60346e-14 0 0)
(6.10356e-14 0 0)
(8.90542e-15 0 0)
(-6.16276e-14 0 0)
(4.86484e-14 0 0)
(-2.47031e-14 0 0)
(6.13908e-14 0 0)
(-1.24345e-14 0 0)
(-3.52902e-15 0 0)
(-1.03976e-14 0 0)
(-1.32635e-15 0 0)
(-4.31064e-15 0 0)
(-4.02641e-14 0 0)
(-7.57201e-14 0 0)
(-3.88904e-14 0 0)
(-8.14282e-14 0 0)
(-1.02816e-13 0 0)
(-1.10774e-13 0 0)
(-8.08835e-14 0 0)
(-1.4353e-13 0 0)
(-7.16228e-14 0 0)
(-1.42653e-13 0 0)
(-1.18448e-13 0 0)
(-1.59304e-13 0 0)
(-1.84054e-13 0 0)
(-1.82846e-13 0 0)
(-2.215e-13 0 0)
(-1.96939e-13 0 0)
(-2.39832e-13 0 0)
(-1.76049e-13 0 0)
(-2.29647e-13 0 0)
(-2.07668e-13 0 0)
(-2.15342e-13 0 0)
(-2.01747e-13 0 0)
(-2.04802e-13 0 0)
(-2.3654e-13 0 0)
(-1.34766e-13 0 0)
(-1.91089e-13 0 0)
(-8.20441e-14 0 0)
(-1.51867e-13 0 0)
(-1.53217e-13 0 0)
(-1.36756e-13 0 0)
(-1.32943e-13 0 0)
(-1.4038e-13 0 0)
(-1.87749e-13 0 0)
(-1.40901e-13 0 0)
(-1.88649e-13 0 0)
(-1.72662e-13 0 0)
(-2.08284e-13 0 0)
(-1.76215e-13 0 0)
(-2.33982e-13 0 0)
(-1.93599e-13 0 0)
(-2.04281e-13 0 0)
(-1.8557e-13 0 0)
(-2.26426e-13 0 0)
(-1.98881e-13 0 0)
(-2.53048e-13 0 0)
(-2.37582e-13 0 0)
(-2.64535e-13 0 0)
(-3.19768e-13 0 0)
(-2.70835e-13 0 0)
(-3.35471e-13 0 0)
(-3.08494e-13 0 0)
(-3.19886e-13 0 0)
(-2.88315e-13 0 0)
(-1.35453e-13 0 0)
(1.34387e-13 0 0)
(6.86692e-13 0 0)
(2.0979e-12 0 0)
(4.80251e-12 0 0)
(1.06835e-11 0 0)
(2.28737e-11 0 0)
(4.79711e-11 0 0)
(9.92189e-11 0 0)
(2.0283e-10 0 0)
(4.10553e-10 0 0)
(8.2306e-10 0 0)
(1.6347e-09 0 0)
(3.21602e-09 0 0)
(6.26746e-09 0 0)
(1.20977e-08 0 0)
(2.31262e-08 0 0)
(4.3776e-08 0 0)
(8.2042e-08 0 0)
(1.52209e-07 0 0)
(2.79503e-07 0 0)
(5.07929e-07 0 0)
(9.13319e-07 0 0)
(1.62471e-06 0 0)
(2.85885e-06 0 0)
(4.97506e-06 0 0)
(8.56093e-06 0 0)
(1.45642e-05 0 0)
(2.44919e-05 0 0)
(4.07052e-05 0 0)
(6.68492e-05 0 0)
(0.000108464 0 0)
(0.000173839 0 0)
(0.000275171 0 0)
(0.000430116 0 0)
(0.000663784 0 0)
(0.00101126 0 0)
(0.00152067 0 0)
(0.00225678 0 0)
(0.00330511 0 0)
(0.00477625 0 0)
(0.00681039 0 0)
(0.00958144 0 0)
(0.0133006 0 0)
(0.0182185 0 0)
(0.0246262 0 0)
(0.0328538 0 0)
(0.0432671 0 0)
(0.0562617 0 0)
(0.0722552 0 0)
(0.091678 0 0)
(0.114963 0 0)
(0.142533 0 0)
(0.174794 0 0)
(0.212123 0 0)
(0.254862 0 0)
(0.303316 0 0)
(0.357746 0 0)
(0.418375 0 0)
(0.485384 0 0)
(0.558923 0 0)
(0.63911 0 0)
(0.72604 0 0)
(0.819786 0 0)
(0.92041 0 0)
(1.02796 0 0)
(1.14248 0 0)
(1.26401 0 0)
(1.39257 0 0)
(1.52821 0 0)
(1.67095 0 0)
(1.82081 0 0)
(1.97784 0 0)
(2.14205 0 0)
(2.31348 0 0)
(2.49217 0 0)
(2.67812 0 0)
(2.87139 0 0)
(3.07201 0 0)
(3.28 0 0)
(3.49539 0 0)
(3.71824 0 0)
(3.94857 0 0)
(4.18641 0 0)
(4.43181 0 0)
(4.68482 0 0)
(4.94546 0 0)
(5.21379 0 0)
(5.48984 0 0)
(5.77367 0 0)
(6.06531 0 0)
(6.36483 0 0)
(6.67226 0 0)
(6.98766 0 0)
(7.31108 0 0)
(7.64258 0 0)
(7.9822 0 0)
(8.33001 0 0)
(8.68605 0 0)
(9.0504 0 0)
(9.42309 0 0)
(9.8042 0 0)
(10.1938 0 0)
(10.5919 0 0)
(10.9986 0 0)
(11.414 0 0)
(11.8381 0 0)
(12.271 0 0)
(12.7128 0 0)
(13.1634 0 0)
(13.623 0 0)
(14.0916 0 0)
(14.5694 0 0)
(15.0562 0 0)
(15.5523 0 0)
(16.0576 0 0)
(16.5724 0 0)
(17.0963 0 0)
(17.6301 0 0)
(18.1725 0 0)
(18.7265 0 0)
(19.2863 0 0)
(19.8629 0 0)
(20.4368 0 0)
(21.0414 0 0)
(21.6232 0 0)
(22.2638 0 0)
(22.8458 0 0)
(23.5289 0 0)
(24.1078 0 0)
(24.8358 0 0)
(25.4095 0 0)
(26.1856 0 0)
(26.7485 0 0)
(27.5777 0 0)
(28.1159 0 0)
(28.9998 0 0)
(29.454 0 0)
(30.8342 0 0)
)
;

boundaryField
{
    sideLeft
    {
        type            symmetryPlane;
    }
    sideRight
    {
        type            calculated;
        value           uniform (30.5349 0 0);
    }
    topbottom
    {
        type            empty;
    }
    frontback
    {
        type            empty;
    }
}


// ************************************************************************* //
