/*--------------------------------*- C++ -*----------------------------------*\
| =========                 |                                                 |
| \\      /  F ield         | OpenFOAM: The Open Source CFD Toolbox           |
|  \\    /   O peration     | Version:  2.4.0                                 |
|   \\  /    A nd           | Web:      www.OpenFOAM.org                      |
|    \\/     M anipulation  |                                                 |
\*---------------------------------------------------------------------------*/
FoamFile
{
    version     2.0;
    format      ascii;
    class       volVectorField;
    location    "0.03";
    object      U.water;
}
// * * * * * * * * * * * * * * * * * * * * * * * * * * * * * * * * * * * * * //

dimensions      [0 1 -1 0 0 0 0];

internalField   nonuniform List<vector> 
1000
(
(5.68437e-14 0 0)
(2.27374e-13 0 0)
(-2.13162e-14 0 0)
(-1.63425e-13 0 0)
(-4.83169e-13 0 0)
(-3.55272e-13 0 0)
(-2.77112e-13 0 0)
(-2.13163e-14 0 0)
(3.69482e-13 0 0)
(4.05009e-13 0 0)
(4.26326e-13 0 0)
(3.97904e-13 0 0)
(5.18696e-13 0 0)
(3.83693e-13 0 0)
(3.76588e-13 0 0)
(2.20268e-13 0 0)
(2.84217e-13 0 0)
(4.05009e-13 0 0)
(5.96856e-13 0 0)
(5.47118e-13 0 0)
(5.32907e-13 0 0)
(2.84219e-14 0 0)
(-2.34479e-13 0 0)
(-2.20268e-13 0 0)
(-4.90275e-13 0 0)
(-3.97904e-13 0 0)
(-1.27898e-13 0 0)
(-7.10544e-14 0 0)
(-1.06581e-13 0 0)
(2.91322e-13 0 0)
(2.98428e-13 0 0)
(7.10544e-14 0 0)
(-1.56319e-13 0 0)
(-3.2685e-13 0 0)
(-5.68436e-14 0 0)
(2.8422e-14 0 0)
(2.4869e-13 0 0)
(2.34479e-13 0 0)
(3.2685e-13 0 0)
(2.70006e-13 0 0)
(3.05533e-13 0 0)
(-9.94758e-14 0 0)
(-2.77112e-13 0 0)
(-2.62901e-13 0 0)
(-3.33955e-13 0 0)
(4.26325e-14 0 0)
(3.62377e-13 0 0)
(5.8975e-13 0 0)
(6.53699e-13 0 0)
(4.9738e-13 0 0)
(2.84217e-13 0 0)
(2.41584e-13 0 0)
(3.97904e-13 0 0)
(5.68434e-13 0 0)
(2.34479e-13 0 0)
(1.42108e-13 0 0)
(2.06057e-13 0 0)
(-1.06581e-13 0 0)
(-7.10534e-15 0 0)
(7.81596e-14 0 0)
(-1.06581e-13 0 0)
(2.84216e-14 0 0)
(1.42109e-13 0 0)
(8.52652e-14 0 0)
(-2.84218e-14 0 0)
(-2.4869e-13 0 0)
(2.84216e-14 0 0)
(-2.84217e-14 0 0)
(-4.97379e-14 0 0)
(2.84215e-14 0 0)
(-1.84741e-13 0 0)
(1.20792e-13 0 0)
(-7.10541e-14 0 0)
(-2.13164e-14 0 0)
(3.55271e-14 0 0)
(3.48166e-13 0 0)
(3.97904e-13 0 0)
(2.13165e-14 0 0)
(4.97379e-14 0 0)
(-1.42108e-14 0 0)
(-2.06058e-13 0 0)
(-6.03961e-13 0 0)
(-6.6791e-13 0 0)
(-5.89751e-13 0 0)
(-5.68434e-13 0 0)
(-5.04485e-13 0 0)
(-6.03961e-13 0 0)
(-3.90799e-13 0 0)
(-6.60805e-13 0 0)
(-8.52651e-13 0 0)
(-7.03437e-13 0 0)
(-7.38964e-13 0 0)
(-6.96332e-13 0 0)
(-6.39488e-13 0 0)
(-2.91323e-13 0 0)
(-3.55272e-13 0 0)
(-5.04485e-13 0 0)
(-1.35003e-13 0 0)
(-3.55271e-14 0 0)
(2.91322e-13 0 0)
(3.90799e-13 0 0)
(4.12115e-13 0 0)
(5.11591e-13 0 0)
(1.84741e-13 0 0)
(9.23705e-14 0 0)
(4.97381e-14 0 0)
(-1.27898e-13 0 0)
(-3.19744e-13 0 0)
(-2.77112e-13 0 0)
(2.20268e-13 0 0)
(7.10554e-15 0 0)
(1.98952e-13 0 0)
(2.27374e-13 0 0)
(2.84216e-14 0 0)
(-4.26326e-14 0 0)
(7.81599e-14 0 0)
(8.5265e-14 0 0)
(-1.27898e-13 0 0)
(-4.26326e-14 0 0)
(-4.26325e-14 0 0)
(-6.39488e-14 0 0)
(5.04485e-13 0 0)
(8.02913e-13 0 0)
(8.81073e-13 0 0)
(7.95808e-13 0 0)
(8.02913e-13 0 0)
(8.45546e-13 0 0)
(5.89751e-13 0 0)
(6.32383e-13 0 0)
(4.9738e-13 0 0)
(5.75539e-13 0 0)
(2.06058e-13 0 0)
(1.84741e-13 0 0)
(-1.06581e-13 0 0)
(1.35003e-13 0 0)
(1.91847e-13 0 0)
(-9.9476e-14 0 0)
(-2.13163e-13 0 0)
(-1.27898e-13 0 0)
(-2.20268e-13 0 0)
(-4.05009e-13 0 0)
(-3.83693e-13 0 0)
(-2.70006e-13 0 0)
(4.26325e-14 0 0)
(-1.56319e-13 0 0)
(-1.27898e-13 0 0)
(-1.27898e-13 0 0)
(1.06581e-13 0 0)
(3.55272e-14 0 0)
(-1.42109e-13 0 0)
(4.26327e-14 0 0)
(-3.55272e-14 0 0)
(-3.90799e-13 0 0)
(-3.05533e-13 0 0)
(-1.20792e-13 0 0)
(-1.35003e-13 0 0)
(-2.13164e-14 0 0)
(-3.12639e-13 0 0)
(-3.90799e-13 0 0)
(-2.77112e-13 0 0)
(-3.90798e-13 0 0)
(-1.42109e-13 0 0)
(-8.52651e-14 0 0)
(-4.97381e-14 0 0)
(9.23706e-14 0 0)
(1.42109e-13 0 0)
(2.70006e-13 0 0)
(4.33431e-13 0 0)
(3.19744e-13 0 0)
(3.2685e-13 0 0)
(2.84217e-13 0 0)
(7.10544e-14 0 0)
(-3.55272e-14 0 0)
(-1.63425e-13 0 0)
(-3.48166e-13 0 0)
(-4.40537e-13 0 0)
(-3.55271e-13 0 0)
(-4.33431e-13 0 0)
(-6.96332e-13 0 0)
(-6.75016e-13 0 0)
(-5.68434e-13 0 0)
(-5.40013e-13 0 0)
(-4.68958e-13 0 0)
(-3.83693e-13 0 0)
(-3.76588e-13 0 0)
(-5.61329e-13 0 0)
(-5.68434e-13 0 0)
(-4.90274e-13 0 0)
(-2.84217e-13 0 0)
(-8.5265e-14 0 0)
(-3.2685e-13 0 0)
(-4.54747e-13 0 0)
(-3.33955e-13 0 0)
(-4.33431e-13 0 0)
(-2.84217e-13 0 0)
(-2.20268e-13 0 0)
(5.90557e-21 0 0)
(4.9738e-14 0 0)
(1.35003e-13 0 0)
(1.42108e-13 0 0)
(1.35003e-13 0 0)
(-1.7053e-13 0 0)
(-2.84218e-14 0 0)
(1.49214e-13 0 0)
(3.19744e-13 0 0)
(3.19744e-13 0 0)
(-2.13164e-14 0 0)
(-1.42108e-13 0 0)
(3.19744e-13 0 0)
(5.47118e-13 0 0)
(5.7554e-13 0 0)
(4.90275e-13 0 0)
(1.84741e-13 0 0)
(1.13687e-13 0 0)
(5.68435e-14 0 0)
(-2.84218e-14 0 0)
(-1.13687e-13 0 0)
(1.98952e-13 0 0)
(3.19744e-13 0 0)
(1.84741e-13 0 0)
(9.94761e-14 0 0)
(7.10543e-14 0 0)
(2.34479e-13 0 0)
(2.70006e-13 0 0)
(-1.56319e-13 0 0)
(-1.5632e-13 0 0)
(4.9738e-14 0 0)
(1.20792e-13 0 0)
(1.49214e-13 0 0)
(1.49214e-13 0 0)
(1.56319e-13 0 0)
(4.54747e-13 0 0)
(3.97904e-13 0 0)
(1.7053e-13 0 0)
(1.27898e-13 0 0)
(1.91846e-13 0 0)
(1.7053e-13 0 0)
(-4.26326e-14 0 0)
(-3.05533e-13 0 0)
(-1.56319e-13 0 0)
(3.19744e-13 0 0)
(1.98952e-13 0 0)
(1.63425e-13 0 0)
(1.91846e-13 0 0)
(-1.63425e-13 0 0)
(-1.49214e-13 0 0)
(-3.33955e-13 0 0)
(-2.70006e-13 0 0)
(-3.62377e-13 0 0)
(-5.04486e-13 0 0)
(-4.05009e-13 0 0)
(-3.62377e-13 0 0)
(-4.33431e-13 0 0)
(-3.4106e-13 0 0)
(-2.34479e-13 0 0)
(-2.06057e-13 0 0)
(-2.41585e-13 0 0)
(-1.98952e-13 0 0)
(-1.06582e-13 0 0)
(-2.4869e-13 0 0)
(4.97377e-14 0 0)
(2.55796e-13 0 0)
(1.84741e-13 0 0)
(-1.20792e-13 0 0)
(4.97381e-14 0 0)
(8.52651e-14 0 0)
(-2.13162e-14 0 0)
(2.91322e-13 0 0)
(4.33431e-13 0 0)
(4.05009e-13 0 0)
(3.41061e-13 0 0)
(4.90274e-13 0 0)
(3.05533e-13 0 0)
(2.4869e-13 0 0)
(2.20268e-13 0 0)
(1.98952e-13 0 0)
(3.2685e-13 0 0)
(5.40012e-13 0 0)
(5.40013e-13 0 0)
(5.47118e-13 0 0)
(6.32383e-13 0 0)
(8.10019e-13 0 0)
(7.74492e-13 0 0)
(5.54224e-13 0 0)
(6.6791e-13 0 0)
(4.90275e-13 0 0)
(1.84741e-13 0 0)
(-2.1316e-14 0 0)
(-1.42109e-13 0 0)
(-1.35003e-13 0 0)
(-1.49214e-13 0 0)
(-2.62901e-13 0 0)
(-2.70006e-13 0 0)
(-2.98428e-13 0 0)
(-1.98952e-13 0 0)
(-5.11591e-13 0 0)
(-3.62377e-13 0 0)
(-1.84741e-13 0 0)
(-2.84217e-13 0 0)
(-2.13162e-14 0 0)
(7.81597e-14 0 0)
(-6.39488e-14 0 0)
(-8.52653e-14 0 0)
(1.63425e-13 0 0)
(2.20268e-13 0 0)
(1.20792e-13 0 0)
(1.77636e-13 0 0)
(4.61853e-13 0 0)
(3.55272e-13 0 0)
(2.41584e-13 0 0)
(6.39488e-14 0 0)
(-2.13162e-14 0 0)
(-3.55272e-14 0 0)
(-4.26325e-14 0 0)
(1.20792e-13 0 0)
(7.81597e-14 0 0)
(8.52651e-14 0 0)
(4.40537e-13 0 0)
(5.04485e-13 0 0)
(4.05009e-13 0 0)
(4.61853e-13 0 0)
(1.98952e-13 0 0)
(2.84215e-14 0 0)
(1.20792e-13 0 0)
(5.8975e-13 0 0)
(7.95808e-13 0 0)
(6.96332e-13 0 0)
(5.32907e-13 0 0)
(2.62901e-13 0 0)
(1.35003e-13 0 0)
(-2.27374e-13 0 0)
(-3.90799e-13 0 0)
(-3.83693e-13 0 0)
(-1.42111e-14 0 0)
(2.77112e-13 0 0)
(2.98428e-13 0 0)
(1.27898e-13 0 0)
(-1.13687e-13 0 0)
(-2.55795e-13 0 0)
(-7.10544e-14 0 0)
(-7.10533e-15 0 0)
(-1.91847e-13 0 0)
(-1.49214e-13 0 0)
(-2.27374e-13 0 0)
(-2.91323e-13 0 0)
(-5.61329e-13 0 0)
(-4.76064e-13 0 0)
(-5.54223e-13 0 0)
(-1.5632e-13 0 0)
(2.20268e-13 0 0)
(2.41584e-13 0 0)
(3.55272e-13 0 0)
(4.68958e-13 0 0)
(3.76588e-13 0 0)
(4.90274e-13 0 0)
(4.1922e-13 0 0)
(-7.10521e-15 0 0)
(-2.62901e-13 0 0)
(-2.98428e-13 0 0)
(-3.55272e-14 0 0)
(-7.1054e-15 0 0)
(-3.05533e-13 0 0)
(-4.33431e-13 0 0)
(-2.13163e-13 0 0)
(-1.91847e-13 0 0)
(-4.83169e-13 0 0)
(-7.17648e-13 0 0)
(-7.60281e-13 0 0)
(-9.23705e-13 0 0)
(-8.81073e-13 0 0)
(-6.6791e-13 0 0)
(-5.89751e-13 0 0)
(-9.09495e-13 0 0)
(-9.02389e-13 0 0)
(-3.90798e-13 0 0)
(-1.35003e-13 0 0)
(-3.90798e-13 0 0)
(-2.4869e-13 0 0)
(-2.84217e-13 0 0)
(-3.69482e-13 0 0)
(-4.90274e-13 0 0)
(-2.55796e-13 0 0)
(-3.33955e-13 0 0)
(-3.12639e-13 0 0)
(-2.91323e-13 0 0)
(-2.13163e-13 0 0)
(1.56319e-13 0 0)
(-7.10526e-15 0 0)
(9.94758e-14 0 0)
(-5.68433e-14 0 0)
(-1.06581e-13 0 0)
(-2.41585e-13 0 0)
(-3.76588e-13 0 0)
(-5.61329e-13 0 0)
(-8.31335e-13 0 0)
(-8.52651e-13 0 0)
(-5.32907e-13 0 0)
(-6.53699e-13 0 0)
(-8.17124e-13 0 0)
(-6.75016e-13 0 0)
(-4.68958e-13 0 0)
(-6.82121e-13 0 0)
(-4.9738e-13 0 0)
(-2.20268e-13 0 0)
(-2.62901e-13 0 0)
(-2.34479e-13 0 0)
(-1.98952e-13 0 0)
(-1.13687e-13 0 0)
(-2.13163e-13 0 0)
(1.63425e-13 0 0)
(3.41061e-13 0 0)
(5.40012e-13 0 0)
(5.47118e-13 0 0)
(3.90798e-13 0 0)
(2.70006e-13 0 0)
(-3.44312e-22 0 0)
(9.94759e-14 0 0)
(1.91846e-13 0 0)
(3.62377e-13 0 0)
(4.54747e-13 0 0)
(4.9738e-13 0 0)
(4.05009e-13 0 0)
(2.77112e-13 0 0)
(4.33431e-13 0 0)
(5.04485e-13 0 0)
(7.53175e-13 0 0)
(8.17124e-13 0 0)
(1.07292e-12 0 0)
(9.30811e-13 0 0)
(7.53176e-13 0 0)
(7.10543e-13 0 0)
(6.82121e-13 0 0)
(6.96332e-13 0 0)
(7.24753e-13 0 0)
(2.84217e-13 0 0)
(-1.7053e-13 0 0)
(-2.41585e-13 0 0)
(-2.70006e-13 0 0)
(-5.61329e-13 0 0)
(-9.37916e-13 0 0)
(-7.38965e-13 0 0)
(-8.3844e-13 0 0)
(-6.53699e-13 0 0)
(-7.81597e-13 0 0)
(-8.3844e-13 0 0)
(-6.53699e-13 0 0)
(-4.47642e-13 0 0)
(-1.27898e-13 0 0)
(-1.7053e-13 0 0)
(-3.55271e-13 0 0)
(-1.42109e-13 0 0)
(-1.20792e-13 0 0)
(-1.7053e-13 0 0)
(6.39488e-14 0 0)
(2.84218e-14 0 0)
(1.84741e-13 0 0)
(2.98428e-13 0 0)
(2.98428e-13 0 0)
(3.76588e-13 0 0)
(1.20792e-13 0 0)
(-1.84741e-13 0 0)
(-2.06057e-13 0 0)
(-3.48166e-13 0 0)
(-6.60805e-13 0 0)
(-4.54747e-13 0 0)
(-3.97904e-13 0 0)
(-2.84217e-13 0 0)
(-4.05009e-13 0 0)
(-3.83693e-13 0 0)
(-5.18696e-13 0 0)
(-5.11591e-13 0 0)
(-6.18172e-13 0 0)
(-5.40013e-13 0 0)
(-6.46594e-13 0 0)
(-5.25801e-13 0 0)
(-3.76588e-13 0 0)
(-3.76587e-13 0 0)
(-7.81599e-14 0 0)
(-1.27898e-13 0 0)
(4.26326e-14 0 0)
(2.55795e-13 0 0)
(8.5265e-14 0 0)
(-1.27898e-13 0 0)
(-2.84218e-14 0 0)
(-1.27898e-13 0 0)
(-1.35003e-13 0 0)
(-7.81599e-14 0 0)
(1.4211e-14 0 0)
(-1.42109e-14 0 0)
(-1.42109e-13 0 0)
(-4.26326e-14 0 0)
(-7.10547e-15 0 0)
(-1.42109e-14 0 0)
(-3.55271e-14 0 0)
(-1.91847e-13 0 0)
(-2.34479e-13 0 0)
(-2.34479e-13 0 0)
(-1.42108e-14 0 0)
(2.27374e-13 0 0)
(8.5265e-14 0 0)
(-1.63425e-13 0 0)
(-3.69482e-13 0 0)
(-5.54223e-13 0 0)
(-4.90274e-13 0 0)
(-3.97904e-13 0 0)
(-3.55271e-13 0 0)
(-1.91846e-13 0 0)
(7.10529e-15 0 0)
(1.21243e-19 0 0)
(-9.23706e-14 0 0)
(-3.55271e-14 0 0)
(1.06581e-13 0 0)
(2.3415e-20 0 0)
(1.35003e-13 0 0)
(-1.13687e-13 0 0)
(3.5527e-14 0 0)
(-1.7053e-13 0 0)
(-3.41061e-13 0 0)
(-1.98952e-13 0 0)
(-2.84217e-14 0 0)
(1.7053e-13 0 0)
(4.1922e-13 0 0)
(6.11067e-13 0 0)
(7.10543e-13 0 0)
(5.8975e-13 0 0)
(4.54747e-13 0 0)
(4.33431e-13 0 0)
(1.7053e-13 0 0)
(2.84217e-13 0 0)
(2.4869e-13 0 0)
(2.27374e-13 0 0)
(9.94761e-14 0 0)
(-2.84218e-14 0 0)
(-1.13687e-13 0 0)
(1.7053e-13 0 0)
(2.34479e-13 0 0)
(1.13687e-13 0 0)
(-1.35003e-13 0 0)
(1.42109e-14 0 0)
(5.68434e-14 0 0)
(8.52652e-14 0 0)
(4.97379e-14 0 0)
(2.84219e-14 0 0)
(2.34479e-13 0 0)
(1.77636e-13 0 0)
(-2.13163e-13 0 0)
(-1.56319e-13 0 0)
(1.42109e-13 0 0)
(-1.13687e-13 0 0)
(-2.77112e-13 0 0)
(-4.12115e-13 0 0)
(-4.61853e-13 0 0)
(-3.2685e-13 0 0)
(-2.4869e-13 0 0)
(-2.84217e-13 0 0)
(-1.49214e-13 0 0)
(1.63425e-13 0 0)
(3.69482e-13 0 0)
(5.18696e-13 0 0)
(3.90799e-13 0 0)
(1.06581e-13 0 0)
(9.23705e-14 0 0)
(3.12639e-13 0 0)
(1.06581e-13 0 0)
(-3.55271e-14 0 0)
(7.81599e-14 0 0)
(-5.68436e-14 0 0)
(4.26326e-14 0 0)
(-1.49214e-13 0 0)
(-1.27898e-13 0 0)
(4.05009e-13 0 0)
(4.33431e-13 0 0)
(1.91847e-13 0 0)
(5.68435e-14 0 0)
(1.42109e-13 0 0)
(1.13687e-13 0 0)
(2.13163e-13 0 0)
(4.1922e-13 0 0)
(5.7554e-13 0 0)
(4.54747e-13 0 0)
(4.76064e-13 0 0)
(7.31859e-13 0 0)
(5.89751e-13 0 0)
(3.97904e-13 0 0)
(6.6791e-13 0 0)
(6.53699e-13 0 0)
(3.76588e-13 0 0)
(3.97904e-13 0 0)
(1.98952e-13 0 0)
(2.84217e-13 0 0)
(2.84219e-14 0 0)
(-7.81598e-14 0 0)
(-9.94759e-14 0 0)
(8.52651e-14 0 0)
(1.35003e-13 0 0)
(2.20268e-13 0 0)
(1.06582e-13 0 0)
(1.06581e-13 0 0)
(1.49214e-13 0 0)
(-7.10541e-15 0 0)
(2.84216e-14 0 0)
(1.91847e-13 0 0)
(-2.13162e-14 0 0)
(-6.39489e-14 0 0)
(1.49214e-13 0 0)
(4.26327e-14 0 0)
(2.84216e-14 0 0)
(1.42109e-14 0 0)
(7.10544e-15 0 0)
(-1.98952e-13 0 0)
(-1.35003e-13 0 0)
(-1.91847e-13 0 0)
(-3.97904e-13 0 0)
(-1.91847e-13 0 0)
(4.9738e-14 0 0)
(1.13687e-13 0 0)
(2.8422e-14 0 0)
(-9.94764e-14 0 0)
(-5.18696e-13 0 0)
(-4.1922e-13 0 0)
(-3.48166e-13 0 0)
(-2.98428e-13 0 0)
(-2.13163e-13 0 0)
(-7.10542e-14 0 0)
(4.9738e-14 0 0)
(1.63425e-13 0 0)
(-2.13162e-14 0 0)
(-1.42109e-14 0 0)
(-1.7053e-13 0 0)
(-2.41585e-13 0 0)
(-8.52651e-14 0 0)
(-1.20792e-13 0 0)
(-1.42111e-14 0 0)
(-9.94757e-14 0 0)
(1.42106e-14 0 0)
(-2.13158e-14 0 0)
(1.13686e-13 0 0)
(2.70006e-13 0 0)
(3.19744e-13 0 0)
(-1.27898e-13 0 0)
(-8.52652e-14 0 0)
(-2.13163e-13 0 0)
(-2.55796e-13 0 0)
(-1.63425e-13 0 0)
(-5.68434e-14 0 0)
(1.42109e-13 0 0)
(3.62377e-13 0 0)
(3.83693e-13 0 0)
(2.98428e-13 0 0)
(3.2685e-13 0 0)
(4.05009e-13 0 0)
(1.77636e-13 0 0)
(1.98952e-13 0 0)
(1.7053e-13 0 0)
(2.20268e-13 0 0)
(2.70006e-13 0 0)
(-4.97377e-14 0 0)
(1.42108e-13 0 0)
(6.3949e-14 0 0)
(3.55271e-13 0 0)
(5.04486e-13 0 0)
(6.46594e-13 0 0)
(5.54223e-13 0 0)
(8.10019e-13 0 0)
(7.74491e-13 0 0)
(7.60281e-13 0 0)
(9.02389e-13 0 0)
(8.17124e-13 0 0)
(3.05533e-13 0 0)
(2.4869e-13 0 0)
(3.05534e-13 0 0)
(3.05533e-13 0 0)
(3.19744e-13 0 0)
(5.32907e-13 0 0)
(7.4607e-13 0 0)
(8.2423e-13 0 0)
(5.54223e-13 0 0)
(3.2685e-13 0 0)
(2.4869e-13 0 0)
(-1.49214e-13 0 0)
(-2.77112e-13 0 0)
(-2.91322e-13 0 0)
(-8.52651e-14 0 0)
(-1.91847e-13 0 0)
(-2.13163e-13 0 0)
(-2.4869e-13 0 0)
(-8.52653e-14 0 0)
(1.13687e-13 0 0)
(4.26323e-14 0 0)
(-1.98952e-13 0 0)
(-2.13163e-13 0 0)
(-2.98428e-13 0 0)
(-2.41585e-13 0 0)
(-3.69482e-13 0 0)
(-2.70006e-13 0 0)
(-3.2685e-13 0 0)
(-1.91846e-13 0 0)
(-3.33955e-13 0 0)
(-4.05009e-13 0 0)
(-2.41585e-13 0 0)
(-6.39489e-14 0 0)
(2.55795e-13 0 0)
(1.56319e-13 0 0)
(-2.84216e-14 0 0)
(-7.10553e-15 0 0)
(-1.63425e-13 0 0)
(-5.11591e-13 0 0)
(-4.90275e-13 0 0)
(-5.25801e-13 0 0)
(-4.12115e-13 0 0)
(-4.40536e-13 0 0)
(-2.77112e-13 0 0)
(-2.06057e-13 0 0)
(-2.13163e-13 0 0)
(-2.55795e-13 0 0)
(-1.27898e-13 0 0)
(-2.98428e-13 0 0)
(-4.76063e-13 0 0)
(-9.94763e-14 0 0)
(-6.39486e-14 0 0)
(-4.26327e-14 0 0)
(-3.41061e-13 0 0)
(-5.8975e-13 0 0)
(-6.89227e-13 0 0)
(-5.04485e-13 0 0)
(-2.27374e-13 0 0)
(-2.55795e-13 0 0)
(9.23705e-14 0 0)
(4.40537e-13 0 0)
(5.89751e-13 0 0)
(6.39488e-13 0 0)
(5.32907e-13 0 0)
(5.11591e-13 0 0)
(6.60805e-13 0 0)
(6.03961e-13 0 0)
(3.97904e-13 0 0)
(2.20268e-13 0 0)
(-1.7053e-13 0 0)
(-7.10532e-15 0 0)
(3.48166e-13 0 0)
(2.55795e-13 0 0)
(1.63425e-13 0 0)
(1.06582e-13 0 0)
(-9.94761e-14 0 0)
(4.26326e-14 0 0)
(7.10544e-14 0 0)
(-4.97382e-14 0 0)
(-1.7053e-13 0 0)
(2.06057e-13 0 0)
(3.41061e-13 0 0)
(1.27898e-13 0 0)
(7.81598e-14 0 0)
(1.77636e-13 0 0)
(2.06057e-13 0 0)
(2.27374e-13 0 0)
(2.20268e-13 0 0)
(1.84741e-13 0 0)
(2.27374e-13 0 0)
(1.91847e-13 0 0)
(1.63425e-13 0 0)
(1.42109e-13 0 0)
(-7.10542e-15 0 0)
(-2.84217e-13 0 0)
(-3.83693e-13 0 0)
(-3.97904e-13 0 0)
(-1.7053e-13 0 0)
(-3.48166e-13 0 0)
(-1.42109e-13 0 0)
(-1.27898e-13 0 0)
(-4.26326e-13 0 0)
(-4.33431e-13 0 0)
(-3.83693e-13 0 0)
(-4.54747e-13 0 0)
(-7.53175e-13 0 0)
(-6.18172e-13 0 0)
(-3.62377e-13 0 0)
(-5.11591e-13 0 0)
(-5.25802e-13 0 0)
(-5.32907e-13 0 0)
(-4.12115e-13 0 0)
(-3.05533e-13 0 0)
(-2.13163e-13 0 0)
(-2.91323e-13 0 0)
(-3.97904e-13 0 0)
(-4.1922e-13 0 0)
(-6.25278e-13 0 0)
(-7.03437e-13 0 0)
(-5.04485e-13 0 0)
(-4.83169e-13 0 0)
(-1.98952e-13 0 0)
(5.68435e-14 0 0)
(-1.49214e-13 0 0)
(-2.13163e-13 0 0)
(-5.68435e-14 0 0)
(-9.23704e-14 0 0)
(-2.98428e-13 0 0)
(-3.5527e-14 0 0)
(1.7053e-13 0 0)
(-2.84217e-14 0 0)
(5.68437e-14 0 0)
(1.49214e-13 0 0)
(1.91847e-13 0 0)
(5.11591e-13 0 0)
(7.60281e-13 0 0)
(9.02389e-13 0 0)
(5.82645e-13 0 0)
(5.68434e-13 0 0)
(7.81597e-13 0 0)
(8.3844e-13 0 0)
(6.25278e-13 0 0)
(6.25278e-13 0 0)
(2.55795e-13 0 0)
(-5.68434e-14 0 0)
(-1.42109e-13 0 0)
(-1.7053e-13 0 0)
(-1.84741e-13 0 0)
(-3.19744e-13 0 0)
(-3.33955e-13 0 0)
(-2.20268e-13 0 0)
(1.20792e-13 0 0)
(1.56319e-13 0 0)
(-1.63425e-13 0 0)
(-4.9738e-13 0 0)
(-6.60805e-13 0 0)
(-7.24753e-13 0 0)
(-6.11067e-13 0 0)
(-5.18696e-13 0 0)
(-5.47118e-13 0 0)
(-6.03961e-13 0 0)
(-5.7554e-13 0 0)
(-6.89226e-13 0 0)
(-9.23705e-13 0 0)
(-8.17124e-13 0 0)
(-8.95284e-13 0 0)
(-8.59757e-13 0 0)
(-8.52651e-13 0 0)
(-8.10019e-13 0 0)
(-6.82121e-13 0 0)
(-4.9738e-13 0 0)
(-5.18696e-13 0 0)
(-4.83169e-13 0 0)
(-3.97904e-13 0 0)
(-5.7554e-13 0 0)
(-4.47642e-13 0 0)
(-6.46594e-13 0 0)
(-5.7554e-13 0 0)
(-7.10543e-13 0 0)
(-8.31335e-13 0 0)
(-7.88702e-13 0 0)
(-9.23706e-13 0 0)
(-1.15108e-12 0 0)
(-1.51346e-12 0 0)
(-1.7053e-12 0 0)
(-1.77636e-12 0 0)
(-1.7053e-12 0 0)
(-1.89004e-12 0 0)
(-1.71951e-12 0 0)
(-1.29319e-12 0 0)
(-3.2685e-13 0 0)
(2.01084e-12 0 0)
(6.55831e-12 0 0)
(1.65272e-11 0 0)
(3.78648e-11 0 0)
(8.2828e-11 0 0)
(1.77344e-10 0 0)
(3.7447e-10 0 0)
(7.83111e-10 0 0)
(1.62095e-09 0 0)
(3.32307e-09 0 0)
(6.75096e-09 0 0)
(1.359e-08 0 0)
(2.7106e-08 0 0)
(5.35596e-08 0 0)
(1.04828e-07 0 0)
(2.032e-07 0 0)
(3.90045e-07 0 0)
(7.41277e-07 0 0)
(1.39461e-06 0 0)
(2.59692e-06 0 0)
(4.78548e-06 0 0)
(8.72525e-06 0 0)
(1.57376e-05 0 0)
(2.80755e-05 0 0)
(4.95296e-05 0 0)
(8.63904e-05 0 0)
(0.000148951 0 0)
(0.000253813 0 0)
(0.00042735 0 0)
(0.000710826 0 0)
(0.00116778 0 0)
(0.00189442 0 0)
(0.00303403 0 0)
(0.00479614 0 0)
(0.00748161 0 0)
(0.0115142 0 0)
(0.0174787 0 0)
(0.0261657 0 0)
(0.03862 0 0)
(0.0561908 0 0)
(0.0805779 0 0)
(0.113867 0 0)
(0.158548 0 0)
(0.217502 0 0)
(0.293958 0 0)
(0.391408 0 0)
(0.513475 0 0)
(0.663748 0 0)
(0.845588 0 0)
(1.06192 0 0)
(1.31502 0 0)
(1.60637 0 0)
(1.93651 0 0)
(2.30502 0 0)
(2.71047 0 0)
(3.15061 0 0)
(3.62246 0 0)
(4.12251 0 0)
(4.647 0 0)
(5.19212 0 0)
(5.75419 0 0)
(6.32986 0 0)
(6.91618 0 0)
(7.51069 0 0)
(8.11142 0 0)
(8.71683 0 0)
(9.32578 0 0)
(9.93745 0 0)
(10.5513 0 0)
(11.1668 0 0)
(11.7839 0 0)
(12.4022 0 0)
(13.0218 0 0)
(13.6426 0 0)
(14.2646 0 0)
(14.8876 0 0)
(15.5119 0 0)
(16.1373 0 0)
(16.764 0 0)
(17.3919 0 0)
(18.0212 0 0)
(18.6518 0 0)
(19.2839 0 0)
(19.9175 0 0)
(20.5528 0 0)
(21.1897 0 0)
(21.8284 0 0)
(22.4689 0 0)
(23.1113 0 0)
(23.7558 0 0)
(24.4024 0 0)
(25.0512 0 0)
(25.7022 0 0)
(26.3556 0 0)
(27.0114 0 0)
(27.6697 0 0)
(28.3306 0 0)
(28.994 0 0)
(29.6601 0 0)
(30.3289 0 0)
(31.0005 0 0)
(31.6749 0 0)
(32.3521 0 0)
(33.0323 0 0)
(33.7154 0 0)
(34.4014 0 0)
(35.0904 0 0)
(35.7824 0 0)
(36.4772 0 0)
(37.1748 0 0)
(37.875 0 0)
(38.5779 0 0)
(39.2834 0 0)
(39.9913 0 0)
(40.7019 0 0)
(41.4148 0 0)
(42.1306 0 0)
(42.848 0 0)
(43.5702 0 0)
(44.2902 0 0)
(45.0229 0 0)
(45.7386 0 0)
(46.494 0 0)
(47.187 0 0)
(47.9917 0 0)
(48.6282 0 0)
(49.519 0 0)
(50.0704 0 0)
(51.0533 0 0)
(51.5505 0 0)
(52.5624 0 0)
(53.0717 0 0)
(54.0787 0 0)
(54.5942 0 0)
(55.6156 0 0)
(56.1253 0 0)
(57.1471 0 0)
(57.6587 0 0)
(58.6512 0 0)
(59.1378 0 0)
(60.6907 0 0)
)
;

boundaryField
{
    sideLeft
    {
        type            symmetryPlane;
    }
    sideRight
    {
        type            zeroGradient;
    }
    topbottom
    {
        type            empty;
    }
    frontback
    {
        type            empty;
    }
}


// ************************************************************************* //
