/*--------------------------------*- C++ -*----------------------------------*\
| =========                 |                                                 |
| \\      /  F ield         | OpenFOAM: The Open Source CFD Toolbox           |
|  \\    /   O peration     | Version:  2.4.0                                 |
|   \\  /    A nd           | Web:      www.OpenFOAM.org                      |
|    \\/     M anipulation  |                                                 |
\*---------------------------------------------------------------------------*/
FoamFile
{
    version     2.0;
    format      ascii;
    class       volVectorField;
    location    "0.03";
    object      U.waterMean;
}
// * * * * * * * * * * * * * * * * * * * * * * * * * * * * * * * * * * * * * //

dimensions      [0 1 -1 0 0 0 0];

internalField   nonuniform List<vector> 
1000
(
(-6.19829e-14 0 0)
(-2.11505e-14 0 0)
(-2.02268e-14 0 0)
(-4.02684e-16 0 0)
(-5.5138e-14 0 0)
(5.35274e-14 0 0)
(-2.08188e-14 0 0)
(-3.55304e-16 0 0)
(-4.80799e-15 0 0)
(1.52767e-14 0 0)
(9e-16 0 0)
(-6.0704e-14 0 0)
(1.12028e-14 0 0)
(-2.60295e-14 0 0)
(-1.18438e-16 0 0)
(3.95532e-15 0 0)
(-3.64741e-15 0 0)
(4.19217e-15 0 0)
(1.17713e-14 0 0)
(-3.42954e-14 0 0)
(5.54933e-14 0 0)
(-6.65533e-15 0 0)
(3.61429e-14 0 0)
(-2.56505e-14 0 0)
(-3.19744e-14 0 0)
(-5.97803e-14 0 0)
(-1.67688e-14 0 0)
(-8.92921e-15 0 0)
(-8.05281e-14 0 0)
(7.74481e-15 0 0)
(-4.82932e-14 0 0)
(-4.81748e-14 0 0)
(-5.68505e-16 0 0)
(-1.2245e-14 0 0)
(1.69819e-14 0 0)
(-5.87144e-14 0 0)
(3.39401e-14 0 0)
(-5.86671e-14 0 0)
(1.96581e-15 0 0)
(-2.04162e-14 0 0)
(5.09221e-14 0 0)
(-1.17002e-14 0 0)
(2.33295e-14 0 0)
(3.03639e-14 0 0)
(5.23196e-14 0 0)
(5.44276e-14 0 0)
(3.97194e-14 0 0)
(6.38541e-14 0 0)
(6.05145e-14 0 0)
(4.07851e-14 0 0)
(-1.86872e-14 0 0)
(6.31909e-14 0 0)
(6.73358e-14 0 0)
(1.0201e-13 0 0)
(8.06703e-14 0 0)
(1.1461e-13 0 0)
(1.14445e-13 0 0)
(1.21526e-13 0 0)
(9.11153e-14 0 0)
(1.17358e-13 0 0)
(6.60569e-14 0 0)
(1.17192e-13 0 0)
(1.10774e-13 0 0)
(1.03005e-13 0 0)
(1.53643e-13 0 0)
(1.43127e-13 0 0)
(1.73491e-13 0 0)
(1.25079e-13 0 0)
(8.30862e-14 0 0)
(1.02081e-13 0 0)
(-5.91999e-16 0 0)
(5.08747e-14 0 0)
(-1.14396e-14 0 0)
(2.18847e-14 0 0)
(-6.08704e-15 0 0)
(-4.98089e-14 0 0)
(4.61378e-14 0 0)
(-5.85249e-14 0 0)
(-2.27137e-14 0 0)
(-5.73882e-14 0 0)
(-1.36188e-14 0 0)
(-2.68823e-14 0 0)
(-4.18272e-14 0 0)
(-7.17652e-15 0 0)
(-4.853e-14 0 0)
(-8.73973e-15 0 0)
(-4.73458e-14 0 0)
(-1.39977e-14 0 0)
(-4.95012e-14 0 0)
(-8.46492e-14 0 0)
(-2.32116e-15 0 0)
(-3.56692e-14 0 0)
(-3.57402e-14 0 0)
(-5.66066e-15 0 0)
(9.2844e-15 0 0)
(5.27932e-14 0 0)
(-2.94874e-14 0 0)
(6.33329e-14 0 0)
(-2.53423e-15 0 0)
(1.58924e-14 0 0)
(-3.4106e-14 0 0)
(-1.74557e-14 0 0)
(-3.63561e-14 0 0)
(-4.78906e-14 0 0)
(-7.7686e-14 0 0)
(-1.12124e-13 0 0)
(-6.12726e-14 0 0)
(-1.28277e-13 0 0)
(-1.28111e-13 0 0)
(-1.10181e-13 0 0)
(-1.35761e-13 0 0)
(-9.99734e-14 0 0)
(-1.00779e-13 0 0)
(-6.53937e-14 0 0)
(-1.04639e-13 0 0)
(-1.37087e-13 0 0)
(-5.55882e-14 0 0)
(-3.8914e-14 0 0)
(-3.28508e-14 0 0)
(-3.71851e-14 0 0)
(-2.78533e-14 0 0)
(2.86348e-14 0 0)
(3.83697e-15 0 0)
(2.58401e-14 0 0)
(3.54324e-14 0 0)
(4.84116e-14 0 0)
(4.92169e-14 0 0)
(2.03926e-14 0 0)
(4.0264e-14 0 0)
(-4.64221e-14 0 0)
(1.31687e-14 0 0)
(-5.56592e-14 0 0)
(-5.65592e-14 0 0)
(-6.57726e-14 0 0)
(-5.22249e-14 0 0)
(-9.28679e-14 0 0)
(-7.88703e-14 0 0)
(-7.18832e-14 0 0)
(-2.54849e-14 0 0)
(-7.24279e-14 0 0)
(-4.39353e-14 0 0)
(-4.26799e-14 0 0)
(-7.22859e-14 0 0)
(-4.00746e-14 0 0)
(-6.47778e-14 0 0)
(-4.23966e-15 0 0)
(-4.13536e-14 0 0)
(-2.38269e-14 0 0)
(-3.3206e-14 0 0)
(-4.0572e-14 0 0)
(-6.44225e-14 0 0)
(-4.493e-14 0 0)
(-5.80276e-14 0 0)
(-4.50247e-14 0 0)
(-1.88057e-14 0 0)
(-1.95162e-14 0 0)
(2.04399e-14 0 0)
(-6.41856e-15 0 0)
(-3.76114e-14 0 0)
(-6.16988e-14 0 0)
(-9.56627e-14 0 0)
(-4.43142e-14 0 0)
(-5.80276e-14 0 0)
(-7.62653e-15 0 0)
(-2.18373e-14 0 0)
(-1.50871e-14 0 0)
(1.51576e-15 0 0)
(-1.61058e-15 0 0)
(3.12165e-14 0 0)
(-3.24718e-14 0 0)
(2.88243e-14 0 0)
(-2.43716e-14 0 0)
(-9.94791e-16 0 0)
(9.45019e-15 0 0)
(-7.89886e-14 0 0)
(-1.44479e-14 0 0)
(-9.6089e-14 0 0)
(-4.31774e-14 0 0)
(-1.26974e-13 0 0)
(-8.87231e-14 0 0)
(-9.51417e-14 0 0)
(-5.72461e-14 0 0)
(-7.10543e-14 0 0)
(-9.41942e-14 0 0)
(-1.81426e-14 0 0)
(-7.52227e-14 0 0)
(-1.30741e-14 0 0)
(-1.1641e-13 0 0)
(9.61584e-15 0 0)
(-7.257e-14 0 0)
(-5.39539e-14 0 0)
(-6.99647e-14 0 0)
(-7.29498e-15 0 0)
(-5.08985e-14 0 0)
(-5.89513e-14 0 0)
(-4.05247e-14 0 0)
(-5.2817e-14 0 0)
(-6.31673e-14 0 0)
(-8.50756e-14 0 0)
(-2.29743e-14 0 0)
(-2.34243e-14 0 0)
(-8.82967e-14 0 0)
(-3.19033e-14 0 0)
(-3.27324e-14 0 0)
(-1.28135e-14 0 0)
(-1.23397e-14 0 0)
(1.90425e-14 0 0)
(-3.79666e-14 0 0)
(-2.0961e-14 0 0)
(-1.10608e-14 0 0)
(2.89427e-14 0 0)
(-7.24748e-15 0 0)
(1.64608e-14 0 0)
(3.01744e-14 0 0)
(4.16141e-14 0 0)
(6.65541e-14 0 0)
(9.7345e-15 0 0)
(3.5006e-14 0 0)
(2.29754e-15 0 0)
(7.24753e-14 0 0)
(2.6598e-14 0 0)
(3.50535e-14 0 0)
(2.63375e-14 0 0)
(4.41957e-14 0 0)
(-1.26002e-14 0 0)
(7.40385e-14 0 0)
(6.95621e-14 0 0)
(4.21826e-14 0 0)
(1.14634e-13 0 0)
(7.43702e-14 0 0)
(4.718e-14 0 0)
(6.27883e-14 0 0)
(1.61294e-14 0 0)
(9.24889e-14 0 0)
(5.60145e-14 0 0)
(7.2949e-14 0 0)
(2.04874e-14 0 0)
(2.71191e-14 0 0)
(2.13636e-14 0 0)
(-5.02111e-15 0 0)
(6.1675e-14 0 0)
(3.02218e-14 0 0)
(-1.18423e-14 0 0)
(6.57725e-14 0 0)
(3.43192e-14 0 0)
(6.42094e-14 0 0)
(3.31587e-14 0 0)
(5.4996e-14 0 0)
(6.78568e-14 0 0)
(9.48574e-14 0 0)
(1.97769e-14 0 0)
(8.05044e-14 0 0)
(1.999e-14 0 0)
(-7.81594e-15 0 0)
(2.09136e-14 0 0)
(6.77392e-15 0 0)
(4.36036e-14 0 0)
(7.366e-15 0 0)
(6.87094e-14 0 0)
(-3.86297e-14 0 0)
(7.6999e-14 0 0)
(-2.85874e-14 0 0)
(4.28688e-15 0 0)
(-3.9672e-14 0 0)
(-6.2125e-14 0 0)
(-3.64035e-14 0 0)
(-7.39438e-14 0 0)
(-5.90698e-14 0 0)
(-9.96181e-14 0 0)
(-1.10916e-13 0 0)
(-1.2084e-13 0 0)
(-9.37916e-14 0 0)
(-1.07789e-13 0 0)
(-1.03147e-13 0 0)
(-9.99497e-14 0 0)
(-7.60281e-14 0 0)
(-1.12692e-13 0 0)
(-2.20269e-14 0 0)
(-9.11389e-14 0 0)
(-4.30115e-14 0 0)
(-3.95062e-14 0 0)
(-3.94589e-14 0 0)
(-5.94724e-14 0 0)
(-1.02271e-13 0 0)
(1.43765e-14 0 0)
(-5.4617e-14 0 0)
(1.08712e-14 0 0)
(-6.4683e-14 0 0)
(-5.09224e-15 0 0)
(-9.87656e-15 0 0)
(-4.23959e-15 0 0)
(1.63188e-14 0 0)
(3.48168e-15 0 0)
(-2.76875e-14 0 0)
(-2.90375e-14 0 0)
(1.48503e-14 0 0)
(-2.67637e-14 0 0)
(5.23669e-14 0 0)
(1.42345e-14 0 0)
(2.24769e-14 0 0)
(7.2049e-14 0 0)
(7.60044e-14 0 0)
(1.39551e-13 0 0)
(1.148e-13 0 0)
(8.38442e-14 0 0)
(1.6757e-13 0 0)
(1.12811e-13 0 0)
(1.74841e-13 0 0)
(1.1679e-13 0 0)
(1.39787e-13 0 0)
(1.29248e-13 0 0)
(1.07647e-13 0 0)
(1.21147e-13 0 0)
(9.29153e-14 0 0)
(1.30574e-13 0 0)
(1.46917e-13 0 0)
(1.53051e-13 0 0)
(1.41422e-13 0 0)
(1.56343e-13 0 0)
(1.35287e-13 0 0)
(1.65343e-13 0 0)
(1.38959e-13 0 0)
(2.04423e-13 0 0)
(1.37182e-13 0 0)
(1.54164e-13 0 0)
(1.05681e-13 0 0)
(8.20914e-14 0 0)
(9.7818e-14 0 0)
(7.42044e-14 0 0)
(8.27783e-14 0 0)
(9.6918e-14 0 0)
(1.10821e-13 0 0)
(8.65678e-14 0 0)
(1.52317e-13 0 0)
(6.84254e-14 0 0)
(1.18329e-13 0 0)
(7.12911e-14 0 0)
(5.9283e-14 0 0)
(7.17648e-14 0 0)
(9.31995e-14 0 0)
(6.25278e-14 0 0)
(9.03336e-14 0 0)
(5.45934e-14 0 0)
(2.01558e-14 0 0)
(4.74405e-14 0 0)
(-1.26713e-14 0 0)
(6.0775e-14 0 0)
(-3.34901e-14 0 0)
(2.68584e-14 0 0)
(-3.01506e-14 0 0)
(1.16043e-15 0 0)
(-6.0396e-14 0 0)
(2.84215e-15 0 0)
(2.25011e-15 0 0)
(5.36696e-14 0 0)
(3.95535e-14 0 0)
(-4.39351e-14 0 0)
(3.11453e-14 0 0)
(-4.92405e-14 0 0)
(-2.85875e-14 0 0)
(-5.12064e-14 0 0)
(-4.17326e-14 0 0)
(-6.79278e-14 0 0)
(-5.85014e-14 0 0)
(-4.47169e-14 0 0)
(-8.01255e-14 0 0)
(-1.06487e-13 0 0)
(-8.95047e-14 0 0)
(-1.21598e-13 0 0)
(-1.06652e-13 0 0)
(-8.23046e-14 0 0)
(-8.88653e-14 0 0)
(-1.35927e-13 0 0)
(-1.33748e-13 0 0)
(-1.53122e-13 0 0)
(-7.58387e-14 0 0)
(-1.14397e-13 0 0)
(-8.92443e-14 0 0)
(-1.38722e-13 0 0)
(-6.79279e-14 0 0)
(-1.33771e-13 0 0)
(-5.96857e-14 0 0)
(-7.53175e-14 0 0)
(-7.9865e-14 0 0)
(-6.60806e-14 0 0)
(-1.3209e-13 0 0)
(-3.59535e-14 0 0)
(-1.03573e-13 0 0)
(-3.8322e-14 0 0)
(-1.04118e-13 0 0)
(-6.43752e-14 0 0)
(-5.6725e-14 0 0)
(-6.43515e-14 0 0)
(-1.08476e-13 0 0)
(-2.28085e-14 0 0)
(-8.28729e-14 0 0)
(-4.02404e-14 0 0)
(-5.49249e-14 0 0)
(-7.81602e-15 0 0)
(-9.47395e-15 0 0)
(-3.3727e-14 0 0)
(-2.12216e-14 0 0)
(-8.24939e-14 0 0)
(-2.22638e-14 0 0)
(-4.60905e-14 0 0)
(-5.77434e-14 0 0)
(-2.61954e-14 0 0)
(-6.43041e-14 0 0)
(-3.41535e-14 0 0)
(-4.62563e-14 0 0)
(-4.56168e-14 0 0)
(-2.34953e-14 0 0)
(-5.40249e-14 0 0)
(-3.50061e-14 0 0)
(-3.16428e-14 0 0)
(-4.64932e-14 0 0)
(-3.55035e-14 0 0)
(-2.94639e-14 0 0)
(-9.50231e-14 0 0)
(1.44713e-14 0 0)
(-4.58537e-14 0 0)
(-4.61143e-14 0 0)
(-1.32635e-13 0 0)
(-6.59858e-14 0 0)
(-1.23942e-13 0 0)
(-9.55206e-14 0 0)
(-3.87957e-14 0 0)
(-4.86959e-14 0 0)
(-1.26951e-14 0 0)
(-8.42939e-14 0 0)
(-6.06346e-15 0 0)
(-8.71598e-14 0 0)
(-6.43989e-14 0 0)
(-3.01271e-14 0 0)
(-6.69568e-14 0 0)
(-9.20626e-14 0 0)
(-7.88229e-14 0 0)
(-1.22616e-13 0 0)
(-8.34651e-14 0 0)
(-1.24937e-13 0 0)
(-8.27072e-14 0 0)
(-1.14871e-13 0 0)
(-1.35216e-13 0 0)
(-6.56779e-14 0 0)
(-1.02105e-13 0 0)
(-6.69332e-14 0 0)
(-1.02294e-13 0 0)
(-3.06481e-14 0 0)
(-5.83829e-14 0 0)
(-8.28019e-14 0 0)
(-7.29254e-14 0 0)
(-1.06037e-13 0 0)
(-3.90562e-14 0 0)
(-5.40486e-14 0 0)
(-1.00471e-13 0 0)
(-7.10306e-14 0 0)
(-1.06037e-13 0 0)
(-1.17192e-13 0 0)
(-9.23943e-14 0 0)
(-1.40616e-13 0 0)
(-9.70839e-14 0 0)
(-1.73657e-13 0 0)
(-1.38887e-13 0 0)
(-1.76665e-13 0 0)
(-1.65296e-13 0 0)
(-2.14892e-13 0 0)
(-2.152e-13 0 0)
(-1.87607e-13 0 0)
(-1.47769e-13 0 0)
(-1.9367e-13 0 0)
(-1.48859e-13 0 0)
(-2.06081e-13 0 0)
(-1.70957e-13 0 0)
(-1.94239e-13 0 0)
(-2.31684e-13 0 0)
(-1.57551e-13 0 0)
(-2.11079e-13 0 0)
(-1.22071e-13 0 0)
(-1.47224e-13 0 0)
(-9.13758e-14 0 0)
(-6.13198e-14 0 0)
(-5.70329e-14 0 0)
(-9.9476e-14 0 0)
(-2.24532e-14 0 0)
(-2.95823e-14 0 0)
(-7.06989e-14 0 0)
(-1.20556e-14 0 0)
(-6.17224e-14 0 0)
(-4.313e-14 0 0)
(-3.20218e-14 0 0)
(-1.98957e-15 0 0)
(-6.03963e-15 0 0)
(-1.54188e-14 0 0)
(-4.46931e-14 0 0)
(-3.64745e-14 0 0)
(-5.46171e-14 0 0)
(-7.69991e-14 0 0)
(-8.55257e-14 0 0)
(-1.03573e-13 0 0)
(-3.0056e-14 0 0)
(-4.56405e-14 0 0)
(-4.05483e-14 0 0)
(-3.70666e-14 0 0)
(-5.12064e-14 0 0)
(-2.43243e-14 0 0)
(-3.42245e-14 0 0)
(-5.62749e-14 0 0)
(-5.99233e-15 0 0)
(-4.65879e-14 0 0)
(-5.54226e-15 0 0)
(-1.64135e-14 0 0)
(2.39216e-14 0 0)
(2.0061e-14 0 0)
(2.88717e-14 0 0)
(2.82797e-14 0 0)
(7.66202e-14 0 0)
(6.24804e-14 0 0)
(1.16174e-13 0 0)
(1.05255e-13 0 0)
(1.02887e-13 0 0)
(8.57151e-14 0 0)
(1.37087e-13 0 0)
(1.10892e-13 0 0)
(1.35714e-13 0 0)
(1.53975e-13 0 0)
(1.27282e-13 0 0)
(1.25292e-13 0 0)
(9.62786e-14 0 0)
(1.45922e-13 0 0)
(1.01063e-13 0 0)
(1.60535e-13 0 0)
(9.78655e-14 0 0)
(1.55254e-13 0 0)
(1.23445e-13 0 0)
(2.23916e-13 0 0)
(1.53359e-13 0 0)
(1.95447e-13 0 0)
(1.56533e-13 0 0)
(8.93627e-14 0 0)
(7.83728e-14 0 0)
(3.85352e-14 0 0)
(5.96381e-14 0 0)
(-6.96325e-15 0 0)
(3.15954e-14 0 0)
(-1.31213e-14 0 0)
(2.48691e-15 0 0)
(6.98696e-15 0 0)
(3.78957e-15 0 0)
(-4.35089e-14 0 0)
(-1.67452e-14 0 0)
(-2.5769e-14 0 0)
(-2.60769e-14 0 0)
(-1.96821e-14 0 0)
(-2.56505e-14 0 0)
(1.74319e-14 0 0)
(2.20274e-15 0 0)
(2.58163e-14 0 0)
(6.77391e-15 0 0)
(9.16362e-14 0 0)
(2.59348e-14 0 0)
(1.76452e-14 0 0)
(3.83693e-14 0 0)
(-1.49207e-15 0 0)
(1.69582e-14 0 0)
(-1.22213e-14 0 0)
(-2.36373e-14 0 0)
(4.00272e-14 0 0)
(9.45022e-15 0 0)
(2.11742e-14 0 0)
(3.30402e-14 0 0)
(4.84116e-14 0 0)
(1.61056e-14 0 0)
(-2.23821e-14 0 0)
(-2.78059e-14 0 0)
(-2.50111e-14 0 0)
(-2.89664e-14 0 0)
(-2.03926e-14 0 0)
(-4.61616e-14 0 0)
(-5.16091e-14 0 0)
(-4.36747e-14 0 0)
(-2.26427e-14 0 0)
(-2.36374e-14 0 0)
(-4.36509e-14 0 0)
(-3.41772e-14 0 0)
(-6.50146e-14 0 0)
(-8.31809e-14 0 0)
(-1.25837e-13 0 0)
(-8.09072e-14 0 0)
(-1.07766e-13 0 0)
(-1.05397e-13 0 0)
(-1.44927e-13 0 0)
(-9.05705e-14 0 0)
(-1.18779e-13 0 0)
(-9.68943e-14 0 0)
(-8.18309e-14 0 0)
(-8.83915e-14 0 0)
(-1.01655e-13 0 0)
(-3.06008e-14 0 0)
(-5.38355e-14 0 0)
(-4.99038e-14 0 0)
(-2.92981e-14 0 0)
(-4.91222e-14 0 0)
(-5.26985e-14 0 0)
(-1.90663e-14 0 0)
(-2.1411e-14 0 0)
(-5.38591e-14 0 0)
(-7.10884e-17 0 0)
(-4.56879e-14 0 0)
(-4.20878e-14 0 0)
(-3.50298e-14 0 0)
(-1.94218e-15 0 0)
(-7.0107e-15 0 0)
(-3.47455e-14 0 0)
(5.54223e-15 0 0)
(1.98952e-14 0 0)
(6.34514e-14 0 0)
(-6.15794e-15 0 0)
(1.38011e-13 0 0)
(3.25903e-14 0 0)
(4.58064e-14 0 0)
(7.36596e-14 0 0)
(1.04331e-13 0 0)
(1.19087e-13 0 0)
(1.12882e-13 0 0)
(1.39053e-13 0 0)
(1.4874e-13 0 0)
(1.15061e-13 0 0)
(1.64443e-13 0 0)
(1.34672e-13 0 0)
(2.54208e-13 0 0)
(2.06152e-13 0 0)
(2.02576e-13 0 0)
(2.2626e-13 0 0)
(1.23753e-13 0 0)
(1.90875e-13 0 0)
(6.7407e-14 0 0)
(2.40092e-13 0 0)
(1.38982e-13 0 0)
(1.91325e-13 0 0)
(1.44027e-13 0 0)
(1.88152e-13 0 0)
(1.59967e-13 0 0)
(1.91657e-13 0 0)
(1.65343e-13 0 0)
(1.38201e-13 0 0)
(1.28253e-13 0 0)
(1.87844e-13 0 0)
(1.79838e-13 0 0)
(1.23682e-13 0 0)
(1.45495e-13 0 0)
(1.5549e-13 0 0)
(1.62951e-13 0 0)
(1.68351e-13 0 0)
(1.51867e-13 0 0)
(1.11674e-13 0 0)
(1.90023e-13 0 0)
(8.42232e-14 0 0)
(2.01344e-13 0 0)
(1.24013e-13 0 0)
(1.66835e-13 0 0)
(1.37632e-13 0 0)
(2.14158e-13 0 0)
(1.78015e-13 0 0)
(1.25221e-13 0 0)
(2.01155e-13 0 0)
(1.76902e-13 0 0)
(1.79838e-13 0 0)
(1.64846e-13 0 0)
(1.59091e-13 0 0)
(2.06792e-13 0 0)
(1.46277e-13 0 0)
(1.59659e-13 0 0)
(1.23564e-13 0 0)
(1.8268e-13 0 0)
(1.35761e-13 0 0)
(1.26856e-13 0 0)
(6.97279e-14 0 0)
(5.76724e-14 0 0)
(2.84691e-14 0 0)
(1.03739e-14 0 0)
(-4.04062e-14 0 0)
(-7.27359e-14 0 0)
(-6.96568e-14 0 0)
(-8.5502e-14 0 0)
(-1.13213e-13 0 0)
(-1.84646e-13 0 0)
(-1.32895e-13 0 0)
(-2.04897e-13 0 0)
(-1.04379e-13 0 0)
(-1.80975e-13 0 0)
(-8.99786e-14 0 0)
(-1.81875e-13 0 0)
(-1.22829e-13 0 0)
(-1.38201e-13 0 0)
(-1.05918e-13 0 0)
(-1.29532e-13 0 0)
(-1.24345e-13 0 0)
(-8.11914e-14 0 0)
(-9.28443e-14 0 0)
(-1.09163e-13 0 0)
(-1.01371e-13 0 0)
(-8.73731e-14 0 0)
(-1.30242e-13 0 0)
(-1.32114e-13 0 0)
(-1.0175e-13 0 0)
(-1.42109e-13 0 0)
(-1.98833e-13 0 0)
(-1.38603e-13 0 0)
(-1.8756e-13 0 0)
(-1.13095e-13 0 0)
(-1.99236e-13 0 0)
(-1.25695e-13 0 0)
(-1.60156e-13 0 0)
(-1.42014e-13 0 0)
(-1.10158e-13 0 0)
(-7.57439e-14 0 0)
(-4.23958e-14 0 0)
(-1.10702e-13 0 0)
(3.19732e-15 0 0)
(-8.34887e-14 0 0)
(-2.12927e-14 0 0)
(-4.00983e-14 0 0)
(-7.35411e-14 0 0)
(-3.60483e-14 0 0)
(-3.86298e-14 0 0)
(-2.86349e-14 0 0)
(-4.58537e-14 0 0)
(-3.21639e-14 0 0)
(-5.96856e-14 0 0)
(-8.23993e-14 0 0)
(-6.79753e-14 0 0)
(-6.83069e-14 0 0)
(-9.3389e-14 0 0)
(-9.77233e-14 0 0)
(-6.65068e-14 0 0)
(-1.0831e-13 0 0)
(-1.92558e-14 0 0)
(-6.25988e-14 0 0)
(-6.43751e-14 0 0)
(-1.75031e-14 0 0)
(2.46316e-15 0 0)
(1.48503e-14 0 0)
(-6.15795e-15 0 0)
(3.52428e-14 0 0)
(3.76589e-15 0 0)
(-1.42044e-16 0 0)
(8.93862e-14 0 0)
(5.46645e-14 0 0)
(8.96231e-14 0 0)
(5.89277e-14 0 0)
(5.75539e-14 0 0)
(4.34616e-14 0 0)
(6.54883e-14 0 0)
(6.55831e-14 0 0)
(6.31436e-14 0 0)
(8.83205e-14 0 0)
(6.55121e-14 0 0)
(9.29626e-14 0 0)
(6.81648e-14 0 0)
(8.6852e-14 0 0)
(7.01305e-14 0 0)
(6.19357e-14 0 0)
(5.37881e-14 0 0)
(8.41519e-14 0 0)
(1.4686e-15 0 0)
(9.18968e-14 0 0)
(2.27137e-14 0 0)
(-4.71325e-15 0 0)
(-1.85215e-14 0 0)
(-4.23247e-14 0 0)
(-7.11253e-14 0 0)
(-7.69755e-14 0 0)
(-1.09945e-13 0 0)
(-1.15771e-13 0 0)
(-1.34269e-13 0 0)
(-9.031e-14 0 0)
(-9.0239e-14 0 0)
(-8.67809e-14 0 0)
(-4.20879e-14 0 0)
(-6.1533e-14 0 0)
(-4.31063e-14 0 0)
(-8.13334e-14 0 0)
(-7.85624e-14 0 0)
(-9.96654e-14 0 0)
(-9.54969e-14 0 0)
(-6.02778e-14 0 0)
(-8.09782e-14 0 0)
(-6.61278e-14 0 0)
(-8.92678e-14 0 0)
(-6.76437e-14 0 0)
(-8.92441e-14 0 0)
(-7.04859e-14 0 0)
(-7.83965e-14 0 0)
(-2.58875e-14 0 0)
(-3.90324e-14 0 0)
(5.53512e-14 0 0)
(1.61767e-14 0 0)
(5.98513e-14 0 0)
(1.09423e-14 0 0)
(-6.16039e-14 0 0)
(4.81984e-14 0 0)
(-2.27136e-14 0 0)
(6.40435e-14 0 0)
(-1.23871e-14 0 0)
(-5.56591e-15 0 0)
(-1.1724e-14 0 0)
(-2.36848e-15 0 0)
(-1.82374e-15 0 0)
(-3.88904e-14 0 0)
(-7.67149e-14 0 0)
(-3.84167e-14 0 0)
(-8.3773e-14 0 0)
(-1.02247e-13 0 0)
(-1.1011e-13 0 0)
(-8.33941e-14 0 0)
(-1.44453e-13 0 0)
(-7.02018e-14 0 0)
(-1.42937e-13 0 0)
(-1.18732e-13 0 0)
(-1.57101e-13 0 0)
(-1.84717e-13 0 0)
(-1.83865e-13 0 0)
(-2.21405e-13 0 0)
(-1.96678e-13 0 0)
(-2.39927e-13 0 0)
(-1.78394e-13 0 0)
(-2.27516e-13 0 0)
(-2.05134e-13 0 0)
(-2.17521e-13 0 0)
(-1.99591e-13 0 0)
(-1.98834e-13 0 0)
(-2.37558e-13 0 0)
(-1.36661e-13 0 0)
(-1.88341e-13 0 0)
(-8.38915e-14 0 0)
(-1.53809e-13 0 0)
(-1.52838e-13 0 0)
(-1.36519e-13 0 0)
(-1.35548e-13 0 0)
(-1.40214e-13 0 0)
(-1.8422e-13 0 0)
(-1.37561e-13 0 0)
(-1.89525e-13 0 0)
(-1.78417e-13 0 0)
(-2.11694e-13 0 0)
(-1.72709e-13 0 0)
(-2.30571e-13 0 0)
(-1.95376e-13 0 0)
(-2.04613e-13 0 0)
(-1.83652e-13 0 0)
(-2.24224e-13 0 0)
(-1.99686e-13 0 0)
(-2.55037e-13 0 0)
(-2.38435e-13 0 0)
(-2.65435e-13 0 0)
(-3.20147e-13 0 0)
(-2.72067e-13 0 0)
(-3.36584e-13 0 0)
(-3.07026e-13 0 0)
(-3.21544e-13 0 0)
(-2.89333e-13 0 0)
(-1.37466e-13 0 0)
(1.26832e-13 0 0)
(6.77147e-13 0 0)
(2.07204e-12 0 0)
(4.74254e-12 0 0)
(1.05674e-11 0 0)
(2.26365e-11 0 0)
(4.74892e-11 0 0)
(9.82575e-11 0 0)
(2.00923e-10 0 0)
(4.06816e-10 0 0)
(8.15802e-10 0 0)
(1.62074e-09 0 0)
(3.18941e-09 0 0)
(6.21729e-09 0 0)
(1.20041e-08 0 0)
(2.29533e-08 0 0)
(4.34603e-08 0 0)
(8.14717e-08 0 0)
(1.5119e-07 0 0)
(2.77703e-07 0 0)
(5.04786e-07 0 0)
(9.07898e-07 0 0)
(1.61547e-06 0 0)
(2.84329e-06 0 0)
(4.94918e-06 0 0)
(8.51844e-06 0 0)
(1.44954e-05 0 0)
(2.43818e-05 0 0)
(4.05316e-05 0 0)
(6.65791e-05 0 0)
(0.00010805 0 0)
(0.000173213 0 0)
(0.000274239 0 0)
(0.000428749 0 0)
(0.00066181 0 0)
(0.00100845 0 0)
(0.00151674 0 0)
(0.00225138 0 0)
(0.0032978 0 0)
(0.00476653 0 0)
(0.00679769 0 0)
(0.00956513 0 0)
(0.01328 0 0)
(0.0181929 0 0)
(0.0245951 0 0)
(0.0328167 0 0)
(0.0432234 0 0)
(0.0562112 0 0)
(0.0721979 0 0)
(0.091614 0 0)
(0.114892 0 0)
(0.142457 0 0)
(0.174712 0 0)
(0.212037 0 0)
(0.254773 0 0)
(0.303224 0 0)
(0.357652 0 0)
(0.418279 0 0)
(0.485288 0 0)
(0.558827 0 0)
(0.639015 0 0)
(0.725945 0 0)
(0.819692 0 0)
(0.920318 0 0)
(1.02787 0 0)
(1.14239 0 0)
(1.26392 0 0)
(1.39249 0 0)
(1.52812 0 0)
(1.67086 0 0)
(1.82073 0 0)
(1.97776 0 0)
(2.14197 0 0)
(2.31341 0 0)
(2.49209 0 0)
(2.67805 0 0)
(2.87132 0 0)
(3.07193 0 0)
(3.27992 0 0)
(3.49532 0 0)
(3.71817 0 0)
(3.9485 0 0)
(4.18634 0 0)
(4.43175 0 0)
(4.68475 0 0)
(4.9454 0 0)
(5.21372 0 0)
(5.48978 0 0)
(5.77361 0 0)
(6.06525 0 0)
(6.36477 0 0)
(6.6722 0 0)
(6.98761 0 0)
(7.31103 0 0)
(7.64252 0 0)
(7.98215 0 0)
(8.32996 0 0)
(8.686 0 0)
(9.05035 0 0)
(9.42304 0 0)
(9.80416 0 0)
(10.1937 0 0)
(10.5919 0 0)
(10.9986 0 0)
(11.414 0 0)
(11.8381 0 0)
(12.271 0 0)
(12.7127 0 0)
(13.1634 0 0)
(13.623 0 0)
(14.0916 0 0)
(14.5693 0 0)
(15.0562 0 0)
(15.5523 0 0)
(16.0576 0 0)
(16.5723 0 0)
(17.0963 0 0)
(17.6301 0 0)
(18.1725 0 0)
(18.7265 0 0)
(19.2863 0 0)
(19.8629 0 0)
(20.4368 0 0)
(21.0414 0 0)
(21.6232 0 0)
(22.2637 0 0)
(22.8458 0 0)
(23.5289 0 0)
(24.1078 0 0)
(24.8358 0 0)
(25.4094 0 0)
(26.1856 0 0)
(26.7485 0 0)
(27.5778 0 0)
(28.1161 0 0)
(29.0008 0 0)
(29.4566 0 0)
(30.8356 0 0)
)
;

boundaryField
{
    sideLeft
    {
        type            symmetryPlane;
    }
    sideRight
    {
        type            calculated;
        value           uniform (30.8356 0 0);
    }
    topbottom
    {
        type            empty;
    }
    frontback
    {
        type            empty;
    }
}


// ************************************************************************* //
