/*--------------------------------*- C++ -*----------------------------------*\
| =========                 |                                                 |
| \\      /  F ield         | OpenFOAM: The Open Source CFD Toolbox           |
|  \\    /   O peration     | Version:  2.4.0                                 |
|   \\  /    A nd           | Web:      www.OpenFOAM.org                      |
|    \\/     M anipulation  |                                                 |
\*---------------------------------------------------------------------------*/
FoamFile
{
    version     2.0;
    format      ascii;
    class       volVectorField;
    location    "0.03";
    object      Ur;
}
// * * * * * * * * * * * * * * * * * * * * * * * * * * * * * * * * * * * * * //

dimensions      [0 1 -1 0 0 0 0];

internalField   nonuniform List<vector> 
1000
(
(1.42109e-14 0 0)
(-7.41211e-22 0 0)
(3.55271e-14 0 0)
(-2.13163e-14 0 0)
(-7.10543e-15 0 0)
(2.13163e-14 0 0)
(-2.84217e-14 0 0)
(5.68434e-14 0 0)
(-2.13163e-14 0 0)
(-2.13163e-14 0 0)
(2.84217e-14 0 0)
(-2.84217e-14 0 0)
(7.10543e-15 0 0)
(2.13163e-14 0 0)
(-4.26326e-14 0 0)
(1.42109e-14 0 0)
(1.42109e-14 0 0)
(-5.68434e-14 0 0)
(-4.26326e-14 0 0)
(4.9738e-14 0 0)
(1.06581e-13 0 0)
(-2.13163e-14 0 0)
(-2.13163e-14 0 0)
(-7.10543e-15 0 0)
(-4.26326e-14 0 0)
(-2.97119e-21 0 0)
(1.42109e-14 0 0)
(1.7628e-21 0 0)
(2.13163e-14 0 0)
(2.13163e-14 0 0)
(4.9738e-14 0 0)
(5.55241e-22 0 0)
(-5.68434e-14 0 0)
(-2.13163e-14 0 0)
(-4.9738e-14 0 0)
(2.13163e-14 0 0)
(7.81597e-14 0 0)
(-1.42109e-14 0 0)
(2.13163e-14 0 0)
(2.13163e-14 0 0)
(-9.23706e-14 0 0)
(-2.13163e-14 0 0)
(7.10543e-15 0 0)
(3.27998e-22 0 0)
(4.9738e-14 0 0)
(1.42109e-14 0 0)
(7.10543e-15 0 0)
(-7.10543e-15 0 0)
(2.84217e-14 0 0)
(1.42109e-14 0 0)
(7.10543e-15 0 0)
(3.55271e-14 0 0)
(-8.52651e-14 0 0)
(-4.9738e-14 0 0)
(1.42109e-14 0 0)
(-4.26326e-14 0 0)
(-1.42109e-14 0 0)
(4.26326e-14 0 0)
(4.9738e-14 0 0)
(7.10543e-15 0 0)
(-7.81597e-14 0 0)
(-7.10543e-15 0 0)
(5.68434e-14 0 0)
(1.42109e-14 0 0)
(5.1046e-22 0 0)
(-2.13163e-14 0 0)
(-7.10543e-15 0 0)
(-7.10543e-15 0 0)
(-2.84217e-14 0 0)
(7.10543e-15 0 0)
(2.13163e-14 0 0)
(-1.42109e-14 0 0)
(2.13163e-14 0 0)
(7.10543e-15 0 0)
(-2.13163e-14 0 0)
(7.10543e-15 0 0)
(3.55271e-14 0 0)
(4.26326e-14 0 0)
(-2.84217e-14 0 0)
(-7.10543e-14 0 0)
(5.20487e-22 0 0)
(5.68434e-14 0 0)
(-2.84217e-14 0 0)
(-2.13163e-14 0 0)
(4.26326e-14 0 0)
(7.10543e-15 0 0)
(-2.84217e-14 0 0)
(-7.10543e-15 0 0)
(7.12138e-22 0 0)
(-1.42109e-14 0 0)
(-2.7874e-21 0 0)
(3.55271e-14 0 0)
(1.42109e-14 0 0)
(-4.9738e-14 0 0)
(-2.13163e-14 0 0)
(3.55271e-14 0 0)
(5.68434e-14 0 0)
(2.13163e-14 0 0)
(-1.42109e-14 0 0)
(-1.68927e-22 0 0)
(-7.10543e-15 0 0)
(-7.10543e-15 0 0)
(-1.06581e-13 0 0)
(-7.10543e-15 0 0)
(9.9476e-14 0 0)
(1.42109e-14 0 0)
(-7.10543e-15 0 0)
(-8.52651e-14 0 0)
(-7.10543e-15 0 0)
(4.9738e-14 0 0)
(5.68434e-14 0 0)
(-2.05854e-22 0 0)
(-2.34929e-21 0 0)
(1.42109e-14 0 0)
(-7.10543e-15 0 0)
(7.10543e-15 0 0)
(-5.68434e-14 0 0)
(-2.84217e-14 0 0)
(2.13163e-14 0 0)
(-1.42109e-14 0 0)
(7.10543e-15 0 0)
(4.26326e-14 0 0)
(-2.13163e-14 0 0)
(-7.10543e-15 0 0)
(1.42109e-14 0 0)
(1.42109e-14 0 0)
(-2.84217e-14 0 0)
(-7.81597e-14 0 0)
(1.42109e-14 0 0)
(2.84217e-14 0 0)
(2.84217e-14 0 0)
(6.39488e-14 0 0)
(2.84217e-14 0 0)
(2.13163e-14 0 0)
(-2.84217e-14 0 0)
(-4.26326e-14 0 0)
(-1.42109e-14 0 0)
(7.58922e-22 0 0)
(7.10543e-14 0 0)
(7.10543e-15 0 0)
(-4.26326e-14 0 0)
(1.42109e-14 0 0)
(-1.42109e-14 0 0)
(-4.26326e-14 0 0)
(-1.42109e-14 0 0)
(6.39488e-14 0 0)
(-7.81597e-14 0 0)
(-5.68434e-14 0 0)
(1.35003e-13 0 0)
(4.26326e-14 0 0)
(-3.55271e-14 0 0)
(-7.10543e-15 0 0)
(5.68434e-14 0 0)
(-1.42109e-14 0 0)
(-4.9738e-14 0 0)
(8.37783e-25 0 0)
(-5.68434e-14 0 0)
(-2.84217e-14 0 0)
(1.42109e-14 0 0)
(-1.42109e-14 0 0)
(-2.13163e-14 0 0)
(-4.9738e-14 0 0)
(2.13163e-14 0 0)
(5.68434e-14 0 0)
(7.10543e-15 0 0)
(7.10543e-15 0 0)
(-7.10543e-15 0 0)
(-4.26326e-14 0 0)
(7.81597e-14 0 0)
(2.13163e-14 0 0)
(-4.26326e-14 0 0)
(6.39488e-14 0 0)
(7.10543e-15 0 0)
(-3.55271e-14 0 0)
(-7.10543e-14 0 0)
(-3.55271e-14 0 0)
(5.68434e-14 0 0)
(7.10543e-14 0 0)
(7.10543e-15 0 0)
(-2.13163e-14 0 0)
(-8.26428e-22 0 0)
(2.84217e-14 0 0)
(-3.55271e-14 0 0)
(-1.50799e-21 0 0)
(2.84217e-14 0 0)
(-7.10543e-15 0 0)
(2.84217e-14 0 0)
(-2.84217e-14 0 0)
(-2.84217e-14 0 0)
(-6.39488e-14 0 0)
(-1.42109e-14 0 0)
(7.81597e-14 0 0)
(-7.10542e-15 0 0)
(-7.10543e-15 0 0)
(2.84217e-14 0 0)
(1.42109e-14 0 0)
(-4.26326e-14 0 0)
(1.42109e-14 0 0)
(2.13163e-14 0 0)
(-5.68434e-14 0 0)
(-3.55271e-14 0 0)
(2.13163e-14 0 0)
(7.10543e-15 0 0)
(-1.42109e-14 0 0)
(2.13163e-14 0 0)
(-7.10543e-15 0 0)
(3.55271e-14 0 0)
(4.26326e-14 0 0)
(-4.26326e-14 0 0)
(1.58752e-21 0 0)
(1.59103e-21 0 0)
(-1.42109e-14 0 0)
(2.13163e-14 0 0)
(-2.13163e-14 0 0)
(-2.13163e-14 0 0)
(1.051e-22 0 0)
(-4.26326e-14 0 0)
(7.10543e-15 0 0)
(-1.42109e-14 0 0)
(-5.68434e-14 0 0)
(4.26326e-14 0 0)
(7.10543e-14 0 0)
(2.84217e-14 0 0)
(-2.84217e-14 0 0)
(-1.04932e-21 0 0)
(2.84217e-14 0 0)
(1.42695e-22 0 0)
(-9.89006e-22 0 0)
(2.13163e-14 0 0)
(2.84217e-14 0 0)
(2.13163e-14 0 0)
(-4.9738e-14 0 0)
(-4.9738e-14 0 0)
(2.13163e-14 0 0)
(3.55271e-14 0 0)
(1.42109e-14 0 0)
(7.10543e-15 0 0)
(2.13163e-14 0 0)
(2.36349e-21 0 0)
(-1.42109e-14 0 0)
(-2.13163e-14 0 0)
(-1.48158e-21 0 0)
(-7.10543e-15 0 0)
(-8.05706e-22 0 0)
(2.84217e-14 0 0)
(8.32776e-22 0 0)
(-2.13163e-14 0 0)
(3.55271e-14 0 0)
(2.13163e-14 0 0)
(-2.13163e-14 0 0)
(-1.42109e-14 0 0)
(7.10543e-15 0 0)
(4.9738e-14 0 0)
(-3.55271e-14 0 0)
(-6.39488e-14 0 0)
(1.42109e-14 0 0)
(2.84217e-14 0 0)
(2.13163e-14 0 0)
(2.84217e-14 0 0)
(-7.10543e-15 0 0)
(-3.55271e-14 0 0)
(-1.42109e-14 0 0)
(-5.68434e-14 0 0)
(-9.09471e-22 0 0)
(2.84217e-14 0 0)
(-7.73623e-23 0 0)
(2.13163e-14 0 0)
(1.42109e-14 0 0)
(-1.42109e-14 0 0)
(-1.42109e-14 0 0)
(3.55271e-14 0 0)
(2.13163e-14 0 0)
(2.13163e-14 0 0)
(7.10543e-15 0 0)
(-2.3436e-21 0 0)
(4.26326e-14 0 0)
(2.13163e-14 0 0)
(-7.10543e-15 0 0)
(-3.55271e-14 0 0)
(1.42109e-14 0 0)
(2.13163e-14 0 0)
(-1.42109e-14 0 0)
(7.10543e-15 0 0)
(-1.42109e-14 0 0)
(1.74225e-21 0 0)
(2.13163e-14 0 0)
(5.68434e-14 0 0)
(-1.42109e-14 0 0)
(-6.39488e-14 0 0)
(7.10543e-15 0 0)
(-1.42109e-14 0 0)
(-3.55271e-14 0 0)
(3.55271e-14 0 0)
(5.68434e-14 0 0)
(-1.42109e-14 0 0)
(-7.81597e-14 0 0)
(-2.84217e-14 0 0)
(6.39488e-14 0 0)
(7.10543e-15 0 0)
(-4.9738e-14 0 0)
(-2.84217e-14 0 0)
(3.55271e-14 0 0)
(6.02025e-22 0 0)
(-7.10543e-15 0 0)
(2.13163e-14 0 0)
(4.26326e-14 0 0)
(2.84217e-14 0 0)
(7.10543e-15 0 0)
(1.42109e-14 0 0)
(-5.68434e-14 0 0)
(2.84217e-14 0 0)
(6.39488e-14 0 0)
(-5.68434e-14 0 0)
(-7.10543e-14 0 0)
(5.68434e-14 0 0)
(2.13163e-14 0 0)
(-2.84217e-14 0 0)
(7.10543e-15 0 0)
(-5.22489e-22 0 0)
(-4.9738e-14 0 0)
(1.93256e-21 0 0)
(3.55271e-14 0 0)
(-4.26326e-14 0 0)
(-3.55271e-14 0 0)
(2.13163e-14 0 0)
(2.84217e-14 0 0)
(-1.42109e-14 0 0)
(-7.10543e-14 0 0)
(1.42109e-14 0 0)
(5.68434e-14 0 0)
(-1.42109e-14 0 0)
(1.42109e-14 0 0)
(-2.84217e-14 0 0)
(-2.84217e-14 0 0)
(3.55271e-14 0 0)
(6.68692e-22 0 0)
(-1.42109e-14 0 0)
(4.26326e-14 0 0)
(7.10543e-15 0 0)
(-3.55271e-14 0 0)
(6.39488e-14 0 0)
(4.26326e-14 0 0)
(-7.10543e-14 0 0)
(-2.84217e-14 0 0)
(7.10543e-15 0 0)
(1.01741e-21 0 0)
(7.10543e-15 0 0)
(1.08057e-21 0 0)
(-3.55271e-14 0 0)
(1.42109e-14 0 0)
(4.9738e-14 0 0)
(-4.26326e-14 0 0)
(-3.5423e-22 0 0)
(7.10543e-15 0 0)
(-1.42109e-14 0 0)
(3.55271e-14 0 0)
(1.08608e-22 0 0)
(2.13163e-14 0 0)
(7.10543e-15 0 0)
(-4.9738e-14 0 0)
(2.13163e-14 0 0)
(7.10543e-15 0 0)
(-2.13163e-14 0 0)
(2.13163e-14 0 0)
(-7.10543e-15 0 0)
(-7.10543e-15 0 0)
(1.42109e-14 0 0)
(3.55271e-14 0 0)
(-2.13163e-14 0 0)
(-3.55271e-14 0 0)
(2.84217e-14 0 0)
(-2.13163e-14 0 0)
(-2.84217e-14 0 0)
(3.55271e-14 0 0)
(4.26326e-14 0 0)
(2.13163e-14 0 0)
(2.84217e-14 0 0)
(-1.42109e-14 0 0)
(-4.9738e-14 0 0)
(4.26326e-14 0 0)
(5.68434e-14 0 0)
(-1.42109e-14 0 0)
(7.10543e-15 0 0)
(2.13163e-14 0 0)
(-1.42109e-14 0 0)
(-4.26326e-14 0 0)
(-4.9738e-14 0 0)
(-2.84217e-14 0 0)
(2.84217e-14 0 0)
(5.68434e-14 0 0)
(2.13163e-14 0 0)
(1.42109e-14 0 0)
(5.68434e-14 0 0)
(-3.55271e-14 0 0)
(-9.9476e-14 0 0)
(8.00195e-22 0 0)
(7.10543e-15 0 0)
(6.39488e-14 0 0)
(1.42109e-14 0 0)
(-3.55271e-14 0 0)
(2.84217e-14 0 0)
(-7.10543e-15 0 0)
(-6.39488e-14 0 0)
(-2.84217e-14 0 0)
(1.42109e-14 0 0)
(2.13163e-14 0 0)
(4.26326e-14 0 0)
(1.42109e-14 0 0)
(-1.42109e-14 0 0)
(-4.26326e-14 0 0)
(-7.10543e-15 0 0)
(-7.10543e-15 0 0)
(-6.48141e-22 0 0)
(3.55271e-14 0 0)
(4.26326e-14 0 0)
(-2.84217e-14 0 0)
(-2.84217e-14 0 0)
(1.42109e-14 0 0)
(-3.55271e-14 0 0)
(7.10543e-15 0 0)
(2.13163e-14 0 0)
(-7.10543e-15 0 0)
(7.10543e-15 0 0)
(2.13163e-14 0 0)
(-4.26326e-14 0 0)
(-4.26326e-14 0 0)
(8.52651e-14 0 0)
(-7.10543e-15 0 0)
(-3.55271e-14 0 0)
(4.9738e-14 0 0)
(7.10543e-14 0 0)
(3.55271e-14 0 0)
(-6.39488e-14 0 0)
(-5.68434e-14 0 0)
(-7.10543e-15 0 0)
(-1.09193e-21 0 0)
(-7.10543e-15 0 0)
(7.10543e-15 0 0)
(7.10543e-15 0 0)
(-1.42109e-14 0 0)
(2.13163e-14 0 0)
(1.42109e-14 0 0)
(-3.05273e-22 0 0)
(2.84217e-14 0 0)
(-2.13163e-14 0 0)
(-3.55271e-14 0 0)
(7.10543e-15 0 0)
(-2.13163e-14 0 0)
(-3.55271e-14 0 0)
(-1.42109e-14 0 0)
(-2.13163e-14 0 0)
(2.84217e-14 0 0)
(6.39488e-14 0 0)
(-2.84217e-14 0 0)
(-7.10543e-15 0 0)
(3.55271e-14 0 0)
(-4.9738e-14 0 0)
(-4.26326e-14 0 0)
(-2.84217e-14 0 0)
(3.55271e-14 0 0)
(2.84217e-14 0 0)
(-3.55271e-14 0 0)
(-2.13163e-14 0 0)
(7.95181e-22 0 0)
(7.10543e-15 0 0)
(7.10543e-15 0 0)
(2.84217e-14 0 0)
(4.26326e-14 0 0)
(1.42109e-14 0 0)
(-4.9738e-14 0 0)
(-4.9738e-14 0 0)
(4.9738e-14 0 0)
(-6.39488e-14 0 0)
(-6.39488e-14 0 0)
(3.55271e-14 0 0)
(2.13163e-14 0 0)
(3.55271e-14 0 0)
(8.86747e-22 0 0)
(-2.84217e-14 0 0)
(2.14477e-21 0 0)
(2.13163e-14 0 0)
(-4.9738e-14 0 0)
(-3.55271e-14 0 0)
(5.68434e-14 0 0)
(7.81597e-14 0 0)
(-2.84217e-14 0 0)
(-3.55271e-14 0 0)
(-4.9738e-14 0 0)
(-5.68434e-14 0 0)
(7.10543e-14 0 0)
(8.52651e-14 0 0)
(5.05446e-22 0 0)
(-4.9738e-14 0 0)
(-1.42109e-14 0 0)
(1.42109e-14 0 0)
(1.42109e-14 0 0)
(2.13163e-14 0 0)
(7.10543e-15 0 0)
(-4.26326e-14 0 0)
(-7.10543e-15 0 0)
(-7.50401e-22 0 0)
(-2.84217e-14 0 0)
(7.10543e-15 0 0)
(1.42109e-14 0 0)
(7.10543e-15 0 0)
(2.93911e-22 0 0)
(1.42109e-14 0 0)
(4.9738e-14 0 0)
(1.58819e-21 0 0)
(-5.68434e-14 0 0)
(1.05718e-21 0 0)
(1.42109e-14 0 0)
(-1.69613e-21 0 0)
(7.10543e-15 0 0)
(2.13163e-14 0 0)
(-8.52651e-14 0 0)
(-1.42109e-14 0 0)
(9.23706e-14 0 0)
(-7.10543e-15 0 0)
(-3.55271e-14 0 0)
(7.10543e-15 0 0)
(4.26326e-14 0 0)
(7.10543e-14 0 0)
(7.10543e-15 0 0)
(-2.84217e-14 0 0)
(1.42109e-14 0 0)
(-6.39488e-14 0 0)
(2.13163e-14 0 0)
(3.55271e-14 0 0)
(-5.68434e-14 0 0)
(-2.13163e-14 0 0)
(-2.84217e-14 0 0)
(-8.55501e-22 0 0)
(7.10543e-15 0 0)
(-1.42109e-14 0 0)
(4.26326e-14 0 0)
(3.55271e-14 0 0)
(-7.10543e-15 0 0)
(-2.84217e-14 0 0)
(7.10543e-15 0 0)
(-1.19987e-21 0 0)
(-4.9738e-14 0 0)
(2.13163e-14 0 0)
(7.10543e-14 0 0)
(4.26326e-14 0 0)
(-1.18066e-21 0 0)
(7.10543e-15 0 0)
(-2.84217e-14 0 0)
(-4.26326e-14 0 0)
(-2.13163e-14 0 0)
(2.13163e-14 0 0)
(5.68434e-14 0 0)
(3.55271e-14 0 0)
(-2.13163e-14 0 0)
(-6.39488e-14 0 0)
(-4.26326e-14 0 0)
(-2.84217e-14 0 0)
(1.42109e-14 0 0)
(6.39488e-14 0 0)
(-2.84217e-14 0 0)
(7.10543e-15 0 0)
(2.84217e-14 0 0)
(-9.23706e-14 0 0)
(-2.40042e-21 0 0)
(2.84217e-14 0 0)
(-1.42109e-14 0 0)
(4.26326e-14 0 0)
(-2.13163e-14 0 0)
(-7.10543e-15 0 0)
(7.10543e-14 0 0)
(1.42109e-14 0 0)
(-3.55271e-14 0 0)
(-3.55271e-14 0 0)
(7.10543e-15 0 0)
(1.42109e-14 0 0)
(-7.10543e-15 0 0)
(-2.13163e-14 0 0)
(2.13163e-14 0 0)
(7.10543e-15 0 0)
(7.10543e-15 0 0)
(-7.10543e-15 0 0)
(-2.84217e-14 0 0)
(1.37448e-21 0 0)
(5.68434e-14 0 0)
(3.55271e-14 0 0)
(-3.55271e-14 0 0)
(-7.10543e-15 0 0)
(2.84217e-14 0 0)
(-7.10543e-15 0 0)
(2.2223e-22 0 0)
(3.55271e-14 0 0)
(-3.55271e-14 0 0)
(-2.84217e-14 0 0)
(4.26326e-14 0 0)
(4.26326e-14 0 0)
(-7.10543e-15 0 0)
(-9.9476e-14 0 0)
(-3.55271e-14 0 0)
(9.23706e-14 0 0)
(4.9738e-14 0 0)
(1.42109e-14 0 0)
(-7.10543e-15 0 0)
(2.13163e-14 0 0)
(-7.10543e-15 0 0)
(-4.26326e-14 0 0)
(-1.42109e-14 0 0)
(7.10543e-15 0 0)
(-1.29361e-21 0 0)
(2.84217e-14 0 0)
(-1.42109e-14 0 0)
(-2.13163e-14 0 0)
(7.10543e-15 0 0)
(-2.84217e-14 0 0)
(2.84217e-14 0 0)
(2.13163e-14 0 0)
(2.84217e-14 0 0)
(-1.42109e-14 0 0)
(-7.10543e-15 0 0)
(4.9738e-14 0 0)
(7.10543e-15 0 0)
(-7.10543e-15 0 0)
(-1.42109e-14 0 0)
(-2.84217e-14 0 0)
(-7.10543e-15 0 0)
(8.62687e-22 0 0)
(-7.10543e-15 0 0)
(-4.26326e-14 0 0)
(-7.10543e-15 0 0)
(4.9738e-14 0 0)
(-1.42109e-14 0 0)
(1.42109e-14 0 0)
(5.68434e-14 0 0)
(-2.13163e-14 0 0)
(-4.9738e-14 0 0)
(-1.42109e-14 0 0)
(3.55271e-14 0 0)
(3.55271e-14 0 0)
(-9.23706e-14 0 0)
(-4.9738e-14 0 0)
(5.68434e-14 0 0)
(7.10543e-15 0 0)
(-1.42109e-14 0 0)
(-2.84217e-14 0 0)
(7.10543e-15 0 0)
(7.10543e-14 0 0)
(1.42109e-14 0 0)
(-4.26326e-14 0 0)
(2.13163e-14 0 0)
(4.26326e-14 0 0)
(1.42109e-14 0 0)
(-1.42109e-14 0 0)
(-2.84217e-14 0 0)
(-4.26326e-14 0 0)
(-2.84217e-14 0 0)
(4.26326e-14 0 0)
(-2.13163e-14 0 0)
(-2.84217e-14 0 0)
(2.84217e-14 0 0)
(1.31333e-22 0 0)
(7.10543e-15 0 0)
(-7.10543e-15 0 0)
(2.84217e-14 0 0)
(3.55271e-14 0 0)
(-3.55271e-14 0 0)
(-3.55271e-14 0 0)
(-2.13163e-14 0 0)
(-1.52068e-21 0 0)
(-7.10543e-15 0 0)
(2.84217e-14 0 0)
(3.55271e-14 0 0)
(-1.42109e-14 0 0)
(-1.42109e-14 0 0)
(7.10543e-15 0 0)
(3.55271e-14 0 0)
(1.42109e-14 0 0)
(-7.10543e-15 0 0)
(1.42109e-14 0 0)
(-7.10543e-15 0 0)
(-2.84217e-14 0 0)
(-2.84217e-14 0 0)
(-4.26326e-14 0 0)
(7.10543e-15 0 0)
(6.39488e-14 0 0)
(2.84217e-14 0 0)
(-1.42109e-14 0 0)
(4.26326e-14 0 0)
(2.13163e-14 0 0)
(-4.9738e-14 0 0)
(-1.42109e-14 0 0)
(1.33622e-21 0 0)
(1.42109e-14 0 0)
(7.10543e-15 0 0)
(4.04025e-22 0 0)
(1.42109e-14 0 0)
(-7.10543e-14 0 0)
(-2.84217e-14 0 0)
(2.13163e-14 0 0)
(2.84217e-14 0 0)
(2.84217e-14 0 0)
(-2.84217e-14 0 0)
(-4.26326e-14 0 0)
(-2.31419e-22 0 0)
(2.13163e-14 0 0)
(2.13163e-14 0 0)
(7.10543e-15 0 0)
(-1.42109e-14 0 0)
(2.13163e-14 0 0)
(-7.10543e-15 0 0)
(-1.42109e-14 0 0)
(-2.13163e-14 0 0)
(-1.42109e-14 0 0)
(3.55271e-14 0 0)
(3.55271e-14 0 0)
(-7.10543e-15 0 0)
(-3.55271e-14 0 0)
(-5.68434e-14 0 0)
(1.42109e-14 0 0)
(7.81597e-14 0 0)
(-7.10543e-15 0 0)
(-3.55271e-14 0 0)
(-3.82635e-22 0 0)
(-1.42109e-14 0 0)
(2.65505e-22 0 0)
(5.68434e-14 0 0)
(2.13163e-14 0 0)
(-4.9738e-14 0 0)
(7.57587e-22 0 0)
(-3.55271e-14 0 0)
(-5.68434e-14 0 0)
(-4.26326e-14 0 0)
(7.10543e-15 0 0)
(9.23706e-14 0 0)
(1.42109e-14 0 0)
(-1.42109e-14 0 0)
(-2.13163e-14 0 0)
(-4.26326e-14 0 0)
(3.55271e-14 0 0)
(2.84217e-14 0 0)
(-2.84217e-14 0 0)
(-7.81597e-14 0 0)
(-9.23706e-14 0 0)
(4.26326e-14 0 0)
(6.39488e-14 0 0)
(2.84217e-14 0 0)
(2.13163e-14 0 0)
(1.27573e-21 0 0)
(-2.13163e-14 0 0)
(-2.13163e-14 0 0)
(-2.13163e-14 0 0)
(-2.13163e-14 0 0)
(3.55271e-14 0 0)
(4.26326e-14 0 0)
(-1.42109e-14 0 0)
(-4.26326e-14 0 0)
(-3.55271e-14 0 0)
(7.10543e-15 0 0)
(-7.10543e-15 0 0)
(7.10543e-15 0 0)
(7.81597e-14 0 0)
(-1.22611e-21 0 0)
(-8.52651e-14 0 0)
(-2.13163e-14 0 0)
(2.84217e-14 0 0)
(2.84217e-14 0 0)
(4.26326e-14 0 0)
(3.55271e-14 0 0)
(-1.42109e-14 0 0)
(7.10543e-15 0 0)
(2.13163e-14 0 0)
(-2.13163e-14 0 0)
(7.10543e-15 0 0)
(3.55271e-14 0 0)
(7.07792e-22 0 0)
(-2.84217e-14 0 0)
(5.68434e-14 0 0)
(-1.42109e-14 0 0)
(-7.10543e-14 0 0)
(4.9738e-14 0 0)
(2.84217e-14 0 0)
(-7.10542e-15 0 0)
(-2.84217e-14 0 0)
(-8.52651e-14 0 0)
(-1.42109e-14 0 0)
(5.68434e-14 0 0)
(-2.84217e-14 0 0)
(-2.13163e-14 0 0)
(2.84217e-14 0 0)
(4.26326e-14 0 0)
(-2.84217e-14 0 0)
(-3.55271e-14 0 0)
(2.13163e-14 0 0)
(-2.84217e-14 0 0)
(7.10543e-15 0 0)
(2.13163e-14 0 0)
(7.10543e-15 0 0)
(-7.10543e-15 0 0)
(7.10543e-15 0 0)
(3.55271e-14 0 0)
(4.30925e-22 0 0)
(-1.42109e-14 0 0)
(-2.3827e-21 0 0)
(2.13163e-14 0 0)
(4.9738e-14 0 0)
(7.10543e-15 0 0)
(1.06988e-21 0 0)
(4.9738e-14 0 0)
(-7.10543e-15 0 0)
(-4.9738e-14 0 0)
(-7.10543e-15 0 0)
(7.10543e-15 0 0)
(1.42109e-14 0 0)
(4.26326e-14 0 0)
(-3.55271e-14 0 0)
(-4.9738e-14 0 0)
(2.13163e-14 0 0)
(-2.13163e-14 0 0)
(-3.55271e-14 0 0)
(4.9738e-14 0 0)
(4.26326e-14 0 0)
(-3.55271e-14 0 0)
(-1.42109e-14 0 0)
(-1.42109e-14 0 0)
(1.42109e-14 0 0)
(4.9738e-14 0 0)
(4.26326e-14 0 0)
(7.10543e-15 0 0)
(-2.13163e-14 0 0)
(2.51303e-22 0 0)
(-7.10543e-15 0 0)
(-7.10543e-15 0 0)
(-1.42109e-14 0 0)
(-1.42109e-14 0 0)
(-4.26326e-14 0 0)
(1.42109e-14 0 0)
(5.68434e-14 0 0)
(-2.21946e-21 0 0)
(1.42109e-14 0 0)
(1.42109e-14 0 0)
(-4.26326e-14 0 0)
(-2.2507e-22 0 0)
(4.26326e-14 0 0)
(2.13163e-14 0 0)
(5.68434e-14 0 0)
(-2.13163e-14 0 0)
(-4.26326e-14 0 0)
(1.42109e-14 0 0)
(-1.42109e-14 0 0)
(4.9738e-14 0 0)
(-2.84217e-14 0 0)
(-7.81597e-14 0 0)
(4.9738e-14 0 0)
(-7.10543e-15 0 0)
(-1.42109e-14 0 0)
(2.13163e-14 0 0)
(1.42109e-14 0 0)
(3.55271e-14 0 0)
(-2.84217e-14 0 0)
(7.10544e-15 0 0)
(2.84217e-14 0 0)
(4.26326e-14 0 0)
(1.56319e-13 0 0)
(2.34479e-13 0 0)
(4.1922e-13 0 0)
(9.0239e-13 0 0)
(1.95399e-12 0 0)
(3.97194e-12 0 0)
(7.93677e-12 0 0)
(1.60156e-11 0 0)
(3.18679e-11 0 0)
(6.27552e-11 0 0)
(1.22597e-10 0 0)
(2.36881e-10 0 0)
(4.52936e-10 0 0)
(8.57327e-10 0 0)
(1.60569e-09 0 0)
(2.97496e-09 0 0)
(5.45186e-09 0 0)
(9.88015e-09 0 0)
(1.77022e-08 0 0)
(3.13496e-08 0 0)
(5.48624e-08 0 0)
(9.48509e-08 0 0)
(1.61963e-07 0 0)
(2.73071e-07 0 0)
(4.54457e-07 0 0)
(7.46329e-07 0 0)
(1.20906e-06 0 0)
(1.9315e-06 0 0)
(3.04169e-06 0 0)
(4.72e-06 0 0)
(7.21437e-06 0 0)
(1.08567e-05 0 0)
(1.60786e-05 0 0)
(2.34227e-05 0 0)
(3.35462e-05 0 0)
(4.72102e-05 0 0)
(6.5248e-05 0 0)
(8.85071e-05 0 0)
(0.000117759 0 0)
(0.000153583 0 0)
(0.000196199 0 0)
(0.000245336 0 0)
(0.000300064 0 0)
(0.00035869 0 0)
(0.000418726 0 0)
(0.000476965 0 0)
(0.00052968 0 0)
(0.000572945 0 0)
(0.000603048 0 0)
(0.000616948 0 0)
(0.000612689 0 0)
(0.000589707 0 0)
(0.000548968 0 0)
(0.000492894 0 0)
(0.00042509 0 0)
(0.000349915 0 0)
(0.000271977 0 0)
(0.000195614 0 0)
(0.000124477 0 0)
(6.12359e-05 0 0)
(7.47059e-06 0 0)
(-3.62888e-05 0 0)
(-7.03937e-05 0 0)
(-9.584e-05 0 0)
(-0.000113987 0 0)
(-0.000126302 0 0)
(-0.000134174 0 0)
(-0.000138804 0 0)
(-0.000141156 0 0)
(-0.000141956 0 0)
(-0.000141725 0 0)
(-0.000140816 0 0)
(-0.000139462 0 0)
(-0.000137816 0 0)
(-0.000135971 0 0)
(-0.000133992 0 0)
(-0.000131919 0 0)
(-0.000129783 0 0)
(-0.000127605 0 0)
(-0.000125404 0 0)
(-0.000123195 0 0)
(-0.000120992 0 0)
(-0.000118807 0 0)
(-0.000116654 0 0)
(-0.000114541 0 0)
(-0.000112479 0 0)
(-0.000110475 0 0)
(-0.000108536 0 0)
(-0.000106669 0 0)
(-0.000104879 0 0)
(-0.000103171 0 0)
(-0.000101549 0 0)
(-0.000100019 0 0)
(-9.85814e-05 0 0)
(-9.72331e-05 0 0)
(-9.5963e-05 0 0)
(-9.47528e-05 0 0)
(-9.35801e-05 0 0)
(-9.2427e-05 0 0)
(-9.12892e-05 0 0)
(-9.0184e-05 0 0)
(-8.915e-05 0 0)
(-8.82383e-05 0 0)
(-8.74974e-05 0 0)
(-8.6955e-05 0 0)
(-8.66029e-05 0 0)
(-8.63877e-05 0 0)
(-8.62134e-05 0 0)
(-8.59626e-05 0 0)
(-8.55322e-05 0 0)
(-8.48822e-05 0 0)
(-8.40426e-05 0 0)
(-8.31303e-05 0 0)
(-8.21866e-05 0 0)
(-8.13253e-05 0 0)
(-8.0232e-05 0 0)
(-7.92547e-05 0 0)
(-7.7539e-05 0 0)
(-7.68065e-05 0 0)
(-7.4775e-05 0 0)
(-7.5194e-05 0 0)
(-7.2961e-05 0 0)
(-7.2769e-05 0 0)
(-7.15712e-05 0 0)
(-6.82379e-05 0 0)
(-7.28674e-05 0 0)
(-6.68415e-05 0 0)
(-6.80994e-05 0 0)
(-9.72224e-05 0 0)
(-3.62506e-05 0 0)
(-5.94454e-05 0 0)
(-5.95944e-05 0 0)
(-6.51948e-05 0 0)
(-6.9338e-05 0 0)
(-8.2336e-05 0 0)
(-0.00013357 0 0)
(-0.000358005 0 0)
(-0.00131869 0 0)
(-0.00252676 0 0)
(0.00146903 0 0)
)
;

boundaryField
{
    sideLeft
    {
        type            symmetryPlane;
    }
    sideRight
    {
        type            calculated;
        value           uniform (-0.343969 0 0);
    }
    topbottom
    {
        type            empty;
    }
    frontback
    {
        type            empty;
    }
}


// ************************************************************************* //
