/*--------------------------------*- C++ -*----------------------------------*\
| =========                 |                                                 |
| \\      /  F ield         | OpenFOAM: The Open Source CFD Toolbox           |
|  \\    /   O peration     | Version:  2.4.0                                 |
|   \\  /    A nd           | Web:      www.OpenFOAM.org                      |
|    \\/     M anipulation  |                                                 |
\*---------------------------------------------------------------------------*/
FoamFile
{
    version     2.0;
    format      ascii;
    class       surfaceScalarField;
    location    "0.04";
    object      phi;
}
// * * * * * * * * * * * * * * * * * * * * * * * * * * * * * * * * * * * * * //

dimensions      [0 3 -1 0 0 0 0];

internalField   nonuniform List<scalar> 
999
(
-2.70006e-13
-9.13635e-13
-1.81102e-13
-2.33992e-13
-1.07033e-12
-9.54665e-13
-1.32244e-12
-4.08487e-13
1.01729e-13
-5.92743e-13
-8.47091e-13
1.63158e-13
2.27374e-13
1.25723e-12
1.98925e-12
1.40225e-12
1.04899e-12
7.13303e-13
1.01711e-12
-4.32151e-13
-2.12933e-13
-4.68958e-13
-3.01782e-13
-3.55271e-13
8.92134e-13
-1.23549e-14
-1.6295e-12
-1.35791e-12
-2.76139e-12
-2.96442e-12
-3.11408e-12
-2.55546e-12
-2.52208e-12
-1.53668e-12
-1.75605e-12
-1.26802e-12
-4.56649e-13
-2.55795e-13
1.94649e-13
-3.2685e-13
1.8608e-12
2.88928e-12
2.51552e-12
2.86037e-12
1.59108e-12
9.75141e-13
-7.10543e-14
5.96856e-13
6.20395e-13
1.68505e-13
3.19791e-14
-9.74669e-13
-1.29201e-12
-2.28174e-12
-1.14233e-12
-5.90616e-13
-1.09871e-12
-1.05686e-12
-6.17885e-13
-1.01039e-12
-7.75529e-13
-1.02976e-13
7.67313e-13
5.34174e-13
2.0546e-12
3.04898e-12
3.19782e-12
1.86673e-12
1.11092e-12
3.58653e-13
-8.03581e-13
-1.3167e-12
-1.8841e-12
-2.20739e-12
-3.33052e-12
-2.66723e-12
-1.62535e-12
-1.4195e-12
-6.69633e-14
4.76918e-13
5.09913e-13
6.81322e-13
-5.01037e-13
-5.4828e-13
-6.18637e-13
7.10543e-13
9.17515e-13
2.13163e-13
-1.24937e-12
-5.55316e-13
-6.53699e-13
-1.14791e-12
-9.76823e-13
3.96308e-14
-3.38061e-13
4.33161e-13
5.1724e-13
-6.30484e-13
-9.9476e-14
2.27374e-13
-4.05844e-13
4.24705e-13
3.37677e-13
7.69134e-13
-4.7397e-14
-1.77388e-13
-7.89332e-13
-8.96581e-14
-1.75777e-12
-2.24666e-12
-2.8426e-12
-2.58778e-12
-2.22978e-12
-2.02036e-12
-7.67359e-13
-5.87215e-13
-7.96696e-13
-1.33826e-12
-1.34704e-12
-7.52148e-13
-1.46235e-12
-1.15039e-12
-8.10019e-13
-1.39202e-12
-1.05993e-12
-1.15005e-12
-9.37334e-13
-4.81471e-13
-5.45508e-13
-1.44023e-12
-4.66689e-13
-1.08904e-12
-2.46452e-13
1.10735e-12
2.93131e-13
6.00806e-13
8.08842e-13
5.07253e-13
1.79323e-12
1.40162e-12
1.6245e-12
2.02024e-12
2.72797e-12
2.59433e-12
8.46507e-13
2.03525e-13
9.76962e-13
1.24252e-12
-6.33566e-13
-1.68036e-12
-2.78072e-12
-1.54924e-12
-1.89882e-12
-1.37936e-12
-2.05512e-12
-2.50838e-13
-4.54994e-13
-1.05013e-12
-3.75755e-13
1.90893e-13
1.25174e-12
1.83704e-12
1.43268e-12
1.95724e-12
2.42277e-12
1.54794e-12
4.05785e-13
-1.42112e-14
-5.60544e-13
-1.20171e-12
-1.73898e-12
-1.28115e-12
-1.75224e-12
-1.46809e-13
-8.52652e-14
7.06132e-14
9.39889e-13
1.15744e-12
7.35622e-13
3.50813e-13
-8.84547e-13
-1.56279e-12
-2.50001e-12
-1.74828e-12
-2.26093e-12
-1.69242e-12
-3.3834e-12
-3.03686e-12
-2.4152e-12
-2.17818e-12
-1.14316e-12
-1.1714e-12
-9.82709e-16
1.2117e-12
5.9668e-13
-3.49924e-13
1.63655e-14
1.20326e-12
1.08898e-12
6.3248e-13
2.45149e-13
4.70455e-13
4.90786e-13
3.82346e-14
4.86671e-13
1.20482e-12
1.01435e-12
3.78175e-13
1.00404e-13
-6.26189e-13
-4.83169e-13
-1.42108e-13
5.69947e-13
3.63578e-13
6.51969e-14
3.23789e-13
-5.09474e-13
-1.84741e-13
-2.41584e-13
-8.52654e-14
-4.86205e-13
-5.86477e-13
-2.0356e-13
-5.07495e-13
-3.4106e-13
-1.11786e-12
-6.04405e-13
-1.41977e-12
-1.62794e-12
-1.75779e-12
-2.71096e-13
2.42046e-13
6.42101e-13
1.76207e-12
6.91376e-13
3.705e-13
-2.3158e-13
-1.02497e-12
-6.10707e-13
3.90666e-13
4.26321e-14
-6.35245e-13
-1.10967e-12
-1.15969e-12
-1.48975e-12
-1.51517e-12
-4.86719e-13
-1.02128e-13
6.19692e-13
1.1578e-12
6.95986e-13
8.56529e-13
5.38269e-14
1.31775e-14
-3.69482e-13
3.70803e-13
1.19855e-12
1.96964e-12
1.97979e-12
1.13761e-12
7.46268e-13
3.42002e-13
3.09376e-13
3.58865e-13
5.00604e-13
-1.36593e-13
-7.94032e-13
-3.0333e-13
-8.91153e-13
1.88764e-13
1.10436e-12
1.0609e-12
-2.13163e-13
-2.8393e-14
-3.37721e-19
-1.13686e-13
-8.00805e-13
-5.73526e-13
-2.71333e-13
7.37491e-13
-4.23889e-13
-3.54488e-13
-3.62539e-13
-8.92117e-13
-1.28521e-12
-5.11757e-14
9.59473e-13
1.27146e-12
2.1693e-12
2.04274e-12
1.20232e-12
2.64666e-12
3.70151e-12
2.17372e-12
1.48874e-12
1.28141e-12
2.19535e-12
2.86352e-12
3.86179e-12
4.46782e-12
3.2377e-12
2.8588e-12
3.27756e-12
3.26416e-12
3.42671e-12
3.22907e-12
3.71368e-12
3.91869e-12
4.81254e-12
4.49241e-12
2.92065e-12
2.56944e-12
3.27529e-12
3.47772e-12
3.53185e-12
3.75581e-12
2.71775e-12
2.50458e-12
2.984e-12
1.85789e-12
7.81092e-13
8.81203e-13
-4.88638e-13
-7.97612e-13
-1.6167e-12
-1.28092e-12
-1.69984e-12
-8.87077e-13
-2.21037e-12
-3.08108e-12
-2.12411e-12
-1.66099e-12
-1.89287e-12
-2.73573e-12
-2.70372e-12
-3.65163e-12
-3.797e-12
-2.58865e-12
-3.79141e-12
-3.51367e-12
-2.83051e-12
-4.23931e-12
-3.77231e-12
-4.06419e-12
-3.34478e-12
-1.87295e-12
-1.02138e-12
-1.95682e-12
-1.48852e-12
-2.09947e-12
-1.37234e-12
-1.06924e-12
-1.1203e-12
-3.42329e-13
-4.25105e-13
-1.22858e-13
-1.6926e-13
5.02436e-13
-1.89764e-13
-7.67386e-13
-4.91291e-13
-1.17202e-12
-1.33669e-12
-9.9063e-13
1.56319e-13
-1.44639e-12
-1.96172e-12
-7.97268e-13
-8.04492e-13
-7.64215e-13
-1.20297e-12
-5.60611e-13
-6.6097e-16
3.83693e-13
6.55004e-13
1.34751e-12
-3.99366e-13
-6.84753e-13
-6.39489e-13
-8.79689e-13
-1.17247e-12
-2.27465e-12
-9.4858e-13
-1.50131e-12
-1.22611e-12
-8.23757e-13
-9.32401e-13
1.59748e-13
-4.80593e-13
3.68154e-13
3.55271e-13
1.07567e-12
1.43102e-12
2.08455e-12
2.66498e-12
2.04681e-12
7.44597e-13
3.94886e-13
1.19016e-12
5.74702e-13
2.15558e-13
3.43316e-13
9.20654e-13
1.30774e-12
-2.41584e-13
-1.4211e-14
-4.53589e-14
-1.69986e-12
-2.33711e-12
-2.78916e-12
-2.61836e-12
-3.11564e-12
-3.15881e-12
-4.29464e-12
-4.42096e-12
-4.22053e-12
-4.27006e-12
-4.33118e-12
-3.42461e-12
-2.67012e-12
-1.51641e-12
-1.4494e-12
-1.3346e-12
-7.05616e-13
-1.42108e-13
-8.39624e-14
5.71475e-14
-3.12639e-13
-9.27638e-13
-1.6808e-12
-8.98795e-13
-4.27552e-13
3.26016e-13
-1.67039e-13
-1.17746e-12
-7.2947e-13
-2.19495e-12
-3.44602e-12
-2.86123e-12
-2.65799e-12
-2.20526e-12
-1.04274e-12
-1.40945e-12
-7.10543e-14
1.85347e-12
2.90317e-12
3.15708e-12
3.85582e-12
4.24137e-12
4.22331e-12
3.43422e-12
2.80445e-12
3.17937e-12
3.59282e-12
4.00082e-12
3.51325e-12
3.62481e-12
2.60761e-12
2.81435e-12
2.18761e-12
1.47709e-12
7.31274e-13
1.17261e-12
1.33972e-12
3.4106e-13
-2.25529e-13
-1.90124e-12
-1.92808e-12
-3.7385e-12
-2.49461e-12
-3.54572e-12
-3.95062e-12
-1.58394e-12
-1.02666e-12
-3.11653e-13
-4.20902e-13
1.58532e-12
2.26204e-12
2.40207e-12
2.53011e-12
2.53923e-12
1.62323e-12
9.62401e-13
1.36984e-12
1.29992e-12
4.83169e-13
-5.82645e-13
-4.26323e-14
5.25054e-13
1.1589e-12
8.28901e-13
2.46432e-13
-4.19988e-14
-4.26326e-13
-1.07035e-12
-4.9374e-13
-7.84176e-13
-2.70006e-13
-3.63854e-13
-3.55272e-13
-1.03576e-14
1.57715e-15
-6.55987e-13
-1.12013e-12
-1.48765e-12
-1.56825e-12
-1.78391e-12
-2.6115e-12
-1.41219e-12
-2.01004e-12
-2.34556e-12
-2.26568e-12
-8.78201e-13
-2.18039e-12
-1.30703e-12
-4.49588e-13
-1.05394e-12
6.85863e-13
3.67462e-13
-4.83169e-13
-1.7652e-12
-1.9128e-12
-1.38993e-12
-1.59019e-12
-8.56818e-13
-1.07809e-12
-8.1839e-13
5.90598e-13
4.08882e-13
-6.95606e-14
-8.63157e-13
-2.22988e-12
-1.66297e-12
-2.57114e-12
-3.03232e-12
-3.61015e-12
-1.94371e-12
-1.64026e-12
-2.08729e-12
-1.72473e-12
-1.85012e-12
-1.87718e-12
-1.11193e-12
-1.79554e-12
-1.89105e-12
-2.18384e-12
-6.89211e-13
-4.06358e-13
1.00392e-13
6.4557e-13
1.21167e-12
4.45816e-13
1.2376e-12
3.48367e-12
1.92872e-12
1.76994e-12
2.0443e-12
1.12423e-12
1.03027e-12
1.73961e-12
2.40446e-12
2.26165e-12
1.51851e-12
1.82069e-12
5.73532e-13
1.17703e-12
2.71006e-12
2.55994e-12
2.47627e-12
2.17414e-12
3.13177e-12
1.92579e-12
2.85832e-12
1.78485e-12
1.81487e-12
4.39151e-13
1.04107e-12
1.80801e-12
1.45839e-12
1.63129e-12
2.11614e-12
1.9295e-12
1.74832e-12
-2.27374e-13
-4.68958e-13
3.68032e-13
2.02599e-12
1.35513e-12
9.31922e-13
1.29819e-12
1.54049e-12
2.22056e-12
1.80329e-12
2.25692e-12
1.90898e-12
3.39499e-12
2.45084e-12
1.80175e-12
1.67425e-12
8.59968e-13
4.76495e-13
7.2081e-13
1.35296e-12
1.11854e-12
2.232e-12
2.43054e-12
1.55854e-12
1.65338e-12
1.33674e-12
1.60808e-12
2.59138e-12
1.46784e-12
1.5488e-12
9.58047e-13
1.38535e-12
-2.27373e-13
7.1054e-14
-2.67984e-13
-4.36485e-13
-3.84146e-13
-8.82626e-13
-1.48874e-12
-9.16733e-13
-1.18858e-12
-1.15989e-12
-1.91506e-12
-1.96385e-12
-1.4501e-12
-8.82771e-13
2.41584e-13
3.69926e-13
1.42714e-12
7.46298e-13
1.7475e-12
1.1142e-12
1.87866e-12
1.58754e-12
8.34841e-13
-2.25392e-13
-1.4092e-13
-8.64949e-13
-2.53593e-13
-8.75795e-13
-1.29759e-12
-1.3497e-12
-1.31836e-12
-1.33877e-12
-8.17625e-13
-1.39616e-12
-2.52855e-12
-2.7458e-12
-1.99113e-12
-1.277e-12
-1.93002e-12
-1.75805e-12
-1.37208e-12
-6.97591e-13
-4.96675e-13
-4.40536e-13
-9.25447e-13
-1.22611e-12
-1.15382e-13
7.11577e-13
3.49437e-13
3.21775e-13
1.39661e-12
1.64506e-12
7.48135e-13
2.85227e-14
-7.83021e-13
-7.30811e-13
-5.03845e-13
-7.29435e-13
-7.81597e-13
-2.39415e-13
7.49499e-13
1.96831e-12
2.02305e-12
1.44702e-12
1.69245e-12
5.56361e-13
2.13163e-13
-9.36247e-13
-8.4652e-13
-1.74476e-12
-2.31714e-12
-2.3815e-12
-1.92533e-12
-1.8577e-12
-5.25802e-13
9.94757e-14
-4.05683e-13
3.10573e-13
2.98428e-13
8.83618e-13
8.04717e-13
7.43705e-13
-1.98952e-13
7.42882e-13
7.24005e-13
3.3075e-13
4.28014e-13
-2.75011e-13
-1.27898e-13
-3.00601e-13
-1.13686e-13
1.92902e-12
1.67929e-12
2.65264e-12
2.0046e-12
2.45263e-12
3.26013e-12
3.85112e-12
3.82938e-12
3.10914e-12
1.78487e-12
2.18186e-12
9.38151e-13
9.63579e-13
6.49252e-13
1.17691e-12
9.46071e-13
1.37752e-12
8.54233e-13
1.06252e-12
1.17049e-12
-1.7053e-13
9.80549e-13
-1.27898e-13
8.73189e-13
1.25276e-12
7.55803e-13
1.78401e-14
-3.46066e-13
7.66053e-13
-5.81098e-13
-2.72669e-13
-5.76463e-13
-2.4907e-12
-1.70299e-12
-1.5531e-12
-1.98439e-12
-9.91171e-13
-1.65414e-12
-1.13162e-12
-5.96856e-13
-1.65435e-12
-6.56058e-13
-1.28834e-12
-1.73002e-12
-9.20548e-13
-1.99594e-13
-7.99011e-13
-4.26325e-13
-1.51541e-12
-4.83169e-13
-1.01944e-12
-2.79244e-13
-1.43119e-13
-6.56898e-13
-5.87727e-13
-5.1808e-13
-6.6105e-13
-5.75739e-13
-1.69458e-12
-9.60733e-13
-1.18311e-12
-6.00113e-13
4.05617e-13
8.04483e-13
6.23642e-13
3.69482e-13
1.53383e-12
8.93808e-13
-9.95402e-13
-3.23353e-13
-7.95035e-13
-7.74095e-13
-4.74185e-13
-2.72689e-13
-1.54021e-12
-1.68056e-12
-1.60878e-12
-3.26233e-13
3.67091e-13
5.10895e-13
6.8418e-13
1.35591e-14
-9.89227e-13
-8.87835e-13
-1.87247e-12
-1.18543e-12
-1.21897e-12
-1.50978e-12
-1.79278e-12
-1.35257e-12
-1.87122e-12
-8.1213e-13
-2.07859e-12
-1.99665e-12
-2.88344e-12
-1.20717e-12
-2.58836e-12
-6.65674e-13
-1.01094e-12
-1.72972e-12
-1.27725e-12
-1.6509e-12
-1.93305e-12
-2.8375e-12
-3.88268e-12
-4.1116e-12
-4.66695e-12
-3.87616e-12
-2.91346e-12
-4.38253e-12
-4.69583e-12
-3.89759e-12
-3.45292e-12
-6.22311e-13
1.94367e-12
6.44261e-12
1.30345e-11
2.87263e-11
5.40049e-11
1.11274e-10
2.26496e-10
4.55772e-10
9.04386e-10
1.77788e-09
3.46441e-09
6.69436e-09
1.28317e-08
2.44078e-08
4.60682e-08
8.62758e-08
1.60311e-07
2.95523e-07
5.40416e-07
9.80232e-07
1.76338e-06
3.14581e-06
5.56469e-06
9.75935e-06
1.69676e-05
2.92409e-05
4.9943e-05
8.45319e-05
0.000141766
0.000235544
0.000387673
0.000631962
0.00102021
0.0016308
0.00258084
0.00404306
0.00626878
0.00961869
0.0146031
0.0219333
0.0325859
0.0478805
0.0695711
0.0999493
0.141956
0.199296
0.276544
0.379236
0.513927
0.688199
0.910613
1.19058
1.53816
1.96377
2.47781
3.09026
3.81024
4.64551
5.60213
6.68406
7.89298
9.22815
10.6865
12.2626
13.9493
15.7378
17.6182
19.5799
21.6123
23.7048
25.8477
28.0318
30.2494
32.4934
34.7583
37.0395
39.3332
41.6368
43.9481
46.2656
48.5877
50.9141
53.2444
55.5783
57.9157
60.2565
62.6007
64.9484
67.2997
69.6547
72.0137
74.3767
76.744
79.1159
81.4925
83.8741
86.2609
88.6533
91.0514
93.4555
95.866
98.2829
100.707
103.137
105.576
108.021
110.474
112.935
115.404
117.882
120.368
122.862
125.365
127.877
130.398
132.928
135.467
138.015
140.572
143.139
145.714
148.298
150.891
153.492
156.102
158.719
161.345
163.979
166.621
169.272
171.93
174.597
177.272
179.955
182.648
185.349
188.058
190.777
193.505
196.242
198.989
201.745
204.511
207.287
210.072
212.868
215.674
218.491
221.317
224.153
227
229.856
232.722
235.597
238.483
241.377
244.282
247.193
250.112
253.048
255.994
258.945
261.905
264.876
267.855
270.844
273.843
276.85
279.867
282.893
285.929
288.972
292.022
295.08
298.144
301.211
304.231
307.349
310.662
)
;

boundaryField
{
    sideLeft
    {
        type            symmetryPlane;
        value           uniform 0;
    }
    sideRight
    {
        type            calculated;
        value           uniform 314.097;
    }
    topbottom
    {
        type            empty;
        value           nonuniform 0();
    }
    frontback
    {
        type            empty;
        value           nonuniform 0();
    }
}


// ************************************************************************* //
