/*--------------------------------*- C++ -*----------------------------------*\
| =========                 |                                                 |
| \\      /  F ield         | OpenFOAM: The Open Source CFD Toolbox           |
|  \\    /   O peration     | Version:  2.4.0                                 |
|   \\  /    A nd           | Web:      www.OpenFOAM.org                      |
|    \\/     M anipulation  |                                                 |
\*---------------------------------------------------------------------------*/
FoamFile
{
    version     2.0;
    format      ascii;
    class       surfaceScalarField;
    location    "0.04";
    object      phi.water;
}
// * * * * * * * * * * * * * * * * * * * * * * * * * * * * * * * * * * * * * //

dimensions      [0 3 -1 0 0 0 0];

internalField   nonuniform List<scalar> 
999
(
-1.56319e-13
-9.13635e-13
-3.51632e-13
2.20755e-13
-1.01348e-12
-1.01151e-12
-1.54982e-12
-4.65331e-13
-1.1958e-14
-7.63274e-13
-3.92344e-13
-1.21059e-13
3.4106e-13
1.37092e-12
1.93241e-12
1.40225e-12
8.78462e-13
5.99616e-13
1.30133e-12
-3.18465e-13
-1.5609e-13
-6.39488e-13
-4.15469e-13
-7.10541e-14
4.37386e-13
5.56079e-13
-1.6295e-12
-1.01685e-12
-3.27298e-12
-2.79388e-12
-3.51198e-12
-2.55546e-12
-2.52208e-12
-1.19562e-12
-1.92658e-12
-1.32486e-12
-4.56649e-13
-1.42108e-13
1.37806e-13
-2.13163e-13
1.51974e-12
2.94613e-12
2.62921e-12
2.80353e-12
1.76161e-12
7.47767e-13
9.9476e-14
4.26326e-13
5.63552e-13
5.66409e-13
8.88225e-14
-1.1452e-12
-1.51939e-12
-2.22489e-12
-1.42655e-12
-5.90616e-13
-1.09871e-12
-8.86334e-13
-6.74728e-13
-1.01039e-12
-8.89215e-13
-1.59819e-13
7.1047e-13
7.04704e-13
2.11145e-12
3.16267e-12
3.31151e-12
1.52567e-12
1.62251e-12
1.88123e-13
-6.89894e-13
-1.37354e-12
-1.77041e-12
-2.43477e-12
-3.4442e-12
-2.0988e-12
-2.13694e-12
-1.24897e-12
-4.64867e-13
7.04292e-13
5.09913e-13
5.67635e-13
-3.8735e-13
-4.91437e-13
-3.91263e-13
4.83169e-13
1.0312e-12
2.70006e-13
-1.59043e-12
-7.8269e-13
-2.55796e-13
-1.09107e-12
-4.08388e-13
-1.04039e-12
1.7353e-13
4.33161e-13
2.33023e-13
-6.30484e-13
-4.26325e-14
1.13687e-13
-2.92157e-13
3.11018e-13
4.51364e-13
4.84917e-13
2.93663e-13
-6.37008e-14
-5.61958e-13
-2.60188e-13
-1.70092e-12
-2.18982e-12
-3.12682e-12
-2.3604e-12
-2.28663e-12
-2.4751e-12
-9.37889e-13
-3.59842e-13
-7.96696e-13
-1.05404e-12
-1.51757e-12
-5.81618e-13
-1.63288e-12
-9.79861e-13
-8.66862e-13
-1.39202e-12
-1.11678e-12
-1.26374e-12
-6.53117e-13
-6.52001e-13
-7.72881e-13
-8.14956e-13
-1.20565e-12
-1.14588e-12
-3.03296e-13
1.16419e-12
4.63661e-13
6.00806e-13
7.51999e-13
1.13253e-12
1.45217e-12
1.17425e-12
1.45397e-12
2.47499e-12
2.5006e-12
2.36695e-12
1.01704e-12
4.87742e-13
5.79058e-13
1.12883e-12
-1.21975e-13
-1.79405e-12
-2.83757e-12
-1.60608e-12
-1.84197e-12
-1.66358e-12
-1.77091e-12
-7.05585e-13
-4.54994e-13
-8.22756e-13
-2.62068e-13
-3.64811e-14
1.13806e-12
1.60966e-12
2.1148e-12
1.95724e-12
2.08171e-12
1.43425e-12
6.33159e-13
9.94757e-14
-6.74231e-13
-1.25855e-12
-1.73898e-12
-1.22431e-12
-1.75224e-12
-8.99656e-14
-2.84218e-14
7.06132e-14
8.26203e-13
1.04376e-12
8.49309e-13
4.645e-13
-1.11192e-12
-1.4491e-12
-2.55685e-12
-2.37356e-12
-1.80618e-12
-1.69242e-12
-3.61077e-12
-3.03686e-12
-2.07414e-12
-2.17818e-12
-8.02095e-13
-1.51246e-12
2.26391e-13
1.04117e-12
5.9668e-13
-8.86342e-15
-4.38382e-13
1.2601e-12
1.31635e-12
4.61949e-13
2.45149e-13
6.40985e-13
1.49726e-13
9.5078e-14
5.43514e-13
1.09113e-12
8.4382e-13
8.89766e-13
2.14091e-13
-9.10406e-13
-3.69482e-13
-5.40012e-13
4.5626e-13
4.77264e-13
-1.05333e-13
6.6485e-13
-6.80004e-13
-5.82645e-13
6.6791e-13
-4.26326e-13
-1.45145e-13
-7.57007e-13
-4.30934e-13
-6.78025e-13
-5.68433e-14
-9.4733e-13
-6.61249e-13
-1.98821e-12
-1.28688e-12
-2.15569e-12
-4.37224e-14
4.12576e-13
8.69475e-13
1.5347e-12
8.61906e-13
2.56813e-13
-7.43171e-13
-6.83905e-13
-5.53864e-13
5.04353e-13
-4.12115e-13
-2.37341e-13
-9.39142e-13
-1.4439e-12
-1.48975e-12
-1.40148e-12
-4.86719e-13
-1.02128e-13
6.19692e-13
1.44202e-12
3.54926e-13
3.44939e-13
2.24357e-13
3.54238e-13
-2.55795e-13
1.43429e-13
1.31223e-12
1.79911e-12
2.15032e-12
7.39706e-13
6.32581e-13
6.26219e-13
1.95689e-13
4.72552e-13
4.43761e-13
9.07805e-14
-7.37188e-13
-1.89643e-13
-5.50093e-13
-2.65984e-13
8.20148e-13
9.47214e-13
1.27898e-13
-1.4208e-13
-3.45796e-19
-2.27373e-13
-6.87118e-13
-4.59839e-13
-3.8502e-13
6.80648e-13
-5.37575e-13
-2.97645e-13
-4.76226e-13
-8.92117e-13
-1.17152e-12
-5.11757e-14
1.18685e-12
1.04408e-12
2.51036e-12
1.53115e-12
1.4297e-12
2.47613e-12
3.36045e-12
2.62847e-12
1.48874e-12
9.97198e-13
2.19535e-12
3.20458e-12
3.74811e-12
4.12676e-12
3.29454e-12
3.14301e-12
3.33441e-12
3.26416e-12
3.08565e-12
3.28591e-12
3.88421e-12
3.52079e-12
5.1536e-12
4.77662e-12
2.92065e-12
2.5126e-12
2.93423e-12
3.76194e-12
3.47501e-12
3.81265e-12
2.49037e-12
2.56142e-12
3.04084e-12
1.85789e-12
5.53718e-13
8.81203e-13
-6.02325e-13
-7.40768e-13
-1.38933e-12
-1.50829e-12
-1.47247e-12
-9.43921e-13
-2.15353e-12
-3.19477e-12
-1.72621e-12
-1.77468e-12
-2.23393e-12
-2.96311e-12
-2.53319e-12
-4.04953e-12
-3.39909e-12
-2.58865e-12
-4.07563e-12
-3.17261e-12
-2.9442e-12
-4.18247e-12
-3.71547e-12
-3.72313e-12
-3.85637e-12
-2.15716e-12
-7.94011e-13
-1.72944e-12
-1.71589e-12
-1.98578e-12
-1.08813e-12
-1.29662e-12
-1.17715e-12
-4.56016e-13
-4.25105e-13
2.18203e-13
-1.6926e-13
2.18219e-13
-3.03451e-13
-3.69482e-13
-1.00288e-12
-9.44647e-13
-1.50722e-12
-9.33787e-13
-7.10547e-14
-1.27585e-12
-1.16591e-12
-1.3657e-12
-8.61335e-13
-7.07371e-13
-8.05064e-13
-6.17454e-13
-1.14348e-13
4.26329e-14
5.98161e-13
1.40435e-12
-5.83054e-14
-1.02581e-12
-8.10019e-13
-1.16391e-12
-8.88256e-13
-1.81991e-12
-1.06227e-12
-1.16025e-12
-1.45349e-12
-8.23757e-13
-1.10293e-12
2.16592e-13
-6.51124e-13
3.11311e-13
5.82645e-13
9.61987e-13
1.54471e-12
2.36877e-12
2.60814e-12
1.87628e-12
7.44597e-13
2.81199e-13
1.47437e-12
1.19955e-13
5.56619e-13
1.15942e-13
8.63811e-13
1.42143e-12
-1.84741e-13
-7.10544e-14
-3.29576e-13
-1.52933e-12
-2.10974e-12
-3.24391e-12
-3.12995e-12
-2.5472e-12
-2.98828e-12
-4.40833e-12
-4.53465e-12
-4.05e-12
-4.72481e-12
-3.99012e-12
-3.5383e-12
-2.61328e-12
-1.51641e-12
-1.22203e-12
-1.27776e-12
-8.19303e-13
-1.98952e-13
-2.54493e-13
1.13991e-13
-1.42109e-13
-1.32554e-12
-1.6808e-12
-7.28265e-13
-4.27552e-13
3.82859e-13
-1.10196e-13
-1.29114e-12
-1.18422e-12
-1.68336e-12
-3.78708e-12
-2.63386e-12
-2.88536e-12
-1.80736e-12
-1.09958e-12
-1.23892e-12
-2.98428e-13
1.73978e-12
2.6758e-12
3.10024e-12
4.19688e-12
4.24137e-12
4.50753e-12
3.32054e-12
2.97498e-12
2.78147e-12
3.70651e-12
3.77344e-12
3.68378e-12
3.39744e-12
3.40341e-12
2.30276e-12
2.18761e-12
1.3634e-12
3.3337e-13
1.51367e-12
1.68078e-12
1.7053e-13
-2.82373e-13
-1.78755e-12
-2.32598e-12
-3.45428e-12
-2.55146e-12
-3.82994e-12
-3.49587e-12
-1.81131e-12
-1.02666e-12
-1.41123e-13
-4.20902e-13
1.52848e-12
1.97782e-12
2.79998e-12
2.41642e-12
2.02764e-12
2.24851e-12
9.05558e-13
1.25615e-12
1.24308e-12
5.40013e-13
-5.25802e-13
-4.26323e-14
5.81897e-13
9.8837e-13
1.05627e-12
4.16962e-13
-2.69373e-13
-3.12639e-13
-1.29773e-12
-2.66366e-13
-7.27332e-13
-5.54223e-13
-3.63854e-13
-2.98428e-13
4.64858e-14
-3.96327e-13
-4.85457e-13
-8.92761e-13
-1.5445e-12
-1.56825e-12
-1.8976e-12
-2.72519e-12
-1.2985e-12
-1.83951e-12
-2.45924e-12
-2.37937e-12
-8.21357e-13
-1.89617e-12
-1.07966e-12
-7.33805e-13
-1.11078e-12
5.72177e-13
4.24305e-13
-5.40012e-13
-1.70836e-12
-2.08333e-12
-1.27624e-12
-1.87441e-12
-1.74697e-13
-1.64652e-12
-1.10261e-12
7.61128e-13
4.65726e-13
-1.27172e-14
-9.20001e-13
-2.05935e-12
-1.66297e-12
-2.74167e-12
-3.14601e-12
-3.43962e-12
-2.00055e-12
-1.52658e-12
-2.42835e-12
-1.61104e-12
-1.62275e-12
-1.82033e-12
-1.22561e-12
-1.79554e-12
-2.00473e-12
-2.24068e-12
-8.59741e-13
-8.45456e-15
4.41452e-13
-9.33946e-14
1.26851e-12
5.59503e-13
1.40813e-12
2.63102e-12
2.26978e-12
1.99731e-12
2.27168e-12
8.96856e-13
1.2008e-12
1.73961e-12
2.23393e-12
2.31849e-12
1.46167e-12
1.707e-12
6.30376e-13
1.57493e-12
2.88059e-12
2.73047e-12
2.19205e-12
2.28783e-12
2.90439e-12
1.98263e-12
2.85832e-12
2.01222e-12
1.47381e-12
4.95994e-13
1.38213e-12
1.46695e-12
1.79945e-12
1.23338e-12
2.40036e-12
1.70213e-12
1.52095e-12
2.27374e-13
-4.68958e-13
3.11189e-13
1.68493e-12
1.12776e-12
1.72773e-12
7.86599e-13
1.59734e-12
2.22056e-12
1.86014e-12
2.02955e-12
2.1932e-12
3.22446e-12
2.394e-12
1.8586e-12
1.6174e-12
9.16811e-13
3.62808e-13
5.50279e-13
1.58034e-12
1.23222e-12
2.34568e-12
2.20317e-12
1.84276e-12
1.59654e-12
1.50727e-12
1.49439e-12
2.25032e-12
1.63837e-12
1.43511e-12
1.12858e-12
1.55588e-12
-2.27373e-13
-4.26329e-14
-6.65888e-13
-9.54244e-14
-4.4099e-13
-8.82626e-13
-1.4319e-12
-9.16733e-13
-1.13173e-12
-1.50095e-12
-1.80137e-12
-1.73648e-12
-1.39325e-12
-8.82771e-13
-4.26329e-14
1.99396e-13
1.65451e-12
8.59985e-13
1.46329e-12
8.86831e-13
2.10604e-12
1.87176e-12
7.21155e-13
-1.68549e-13
-3.68293e-13
-1.25985e-13
-5.3781e-13
-1.16001e-12
-1.46812e-12
-1.12233e-12
-1.26151e-12
-1.62299e-12
-8.74468e-13
-1.33931e-12
-2.47171e-12
-2.68896e-12
-1.99113e-12
-1.277e-12
-2.04371e-12
-1.41699e-12
-1.59945e-12
-7.54434e-13
-7.80892e-13
-4.26324e-14
-1.20966e-12
-1.05558e-12
-5.8539e-14
4.84204e-13
6.33654e-13
3.78619e-13
1.39661e-12
1.53137e-12
7.48135e-13
-2.55694e-13
-6.69334e-13
-5.60281e-13
-3.90158e-13
-1.18418e-12
-5.54224e-13
-4.09945e-13
8.06343e-13
2.19568e-12
1.85252e-12
1.56071e-12
1.86298e-12
4.99517e-13
2.13163e-13
-1.10678e-12
-7.32833e-13
-1.63107e-12
-2.20345e-12
-2.49518e-12
-2.20955e-12
-1.45979e-12
-4.12115e-13
9.94757e-14
-9.74117e-13
4.2426e-13
1.84741e-13
1.16783e-12
8.6156e-13
6.86862e-13
-1.98952e-13
7.99726e-13
-1.49598e-14
5.0128e-13
7.12231e-13
-2.75011e-13
-5.25802e-13
-1.63842e-14
1.13687e-13
1.92902e-12
1.5656e-12
2.19789e-12
2.23198e-12
2.11157e-12
4.05594e-12
3.96481e-12
3.54517e-12
3.10914e-12
1.72802e-12
2.12502e-12
1.33605e-12
1.13411e-12
4.78722e-13
9.49541e-13
8.89227e-13
1.26384e-12
9.11076e-13
1.23305e-12
1.11365e-12
-1.7053e-13
6.39488e-13
9.94761e-14
1.27109e-12
1.25276e-12
9.83177e-13
-6.07438e-13
-1.18693e-13
8.79739e-13
-6.37941e-13
-4.43199e-13
-9.17523e-13
-2.20648e-12
-1.75984e-12
-1.49626e-12
-1.81386e-12
-1.1617e-12
-1.31308e-12
-1.24531e-12
-1.0516e-12
-1.48382e-12
-8.83431e-13
-1.06097e-12
-1.9574e-12
-8.63704e-13
-1.99594e-13
-4.57951e-13
-4.83169e-13
-1.06066e-12
-9.37916e-13
-4.51002e-13
-8.47678e-13
8.42552e-14
-9.41115e-13
-6.44571e-13
-4.04393e-13
-4.9052e-13
-6.89425e-13
-1.35352e-12
-1.58601e-12
-1.01258e-12
-7.138e-13
4.6246e-13
1.03186e-12
6.23642e-13
4.26326e-13
8.51712e-13
5.52747e-13
-3.70124e-13
-9.59789e-14
-6.81348e-13
-1.11516e-12
-7.58402e-13
-1.59002e-13
-1.42653e-12
-1.51003e-12
-1.21088e-12
-6.10451e-13
1.39717e-13
6.24582e-13
5.70493e-13
-6.11719e-13
-3.63949e-13
-8.30991e-13
-1.58825e-12
-1.46965e-12
-9.91599e-13
-1.73715e-12
-1.62225e-12
-1.23888e-12
-1.98491e-12
-1.55109e-12
-1.62384e-12
-1.88296e-12
-2.59922e-12
-1.3777e-12
-2.2473e-12
-9.49891e-13
-1.06778e-12
-1.55919e-12
-1.27725e-12
-1.76459e-12
-2.21727e-12
-2.04169e-12
-4.22375e-12
-4.28213e-12
-4.66695e-12
-3.47825e-12
-3.31136e-12
-4.15516e-12
-4.86636e-12
-3.72706e-12
-3.56661e-12
-5.08624e-13
1.71629e-12
6.15839e-12
1.30913e-11
2.81011e-11
5.36638e-11
1.10307e-10
2.24733e-10
4.51963e-10
8.97281e-10
1.76338e-09
3.43678e-09
6.64365e-09
1.27353e-08
2.42309e-08
4.57421e-08
8.56824e-08
1.59239e-07
2.93602e-07
5.37006e-07
9.74232e-07
1.75292e-06
3.12774e-06
5.53375e-06
9.70689e-06
1.68795e-05
2.90944e-05
4.97019e-05
8.41389e-05
0.000141132
0.000234533
0.000386077
0.000629471
0.00101636
0.00162493
0.00257199
0.00402987
0.00624937
0.00959048
0.0145626
0.021876
0.0325058
0.0477702
0.0694212
0.0997487
0.141692
0.198953
0.276105
0.378685
0.513246
0.687372
0.909626
1.18942
1.53683
1.96227
2.47615
3.08847
3.80834
4.64354
5.60012
6.68207
7.89105
9.22633
10.6848
12.2611
13.948
15.7367
17.6173
19.5793
21.6118
23.7046
25.8476
28.0319
30.2496
32.4937
34.7587
37.0399
39.3336
41.6372
43.9485
46.2661
48.5881
50.9146
53.2449
55.5788
57.9162
60.257
62.6012
64.9489
67.3002
69.6552
72.0141
74.3771
76.7445
79.1163
81.4929
83.8745
86.2613
88.6537
91.0518
93.4559
95.8663
98.2833
100.707
103.138
105.576
108.021
110.475
112.936
115.405
117.882
120.368
122.862
125.365
127.877
130.398
132.928
135.467
138.015
140.573
143.139
145.714
148.298
150.891
153.492
156.102
158.72
161.346
163.98
166.622
169.272
171.93
174.597
177.272
179.956
182.648
185.349
188.059
190.777
193.505
196.242
198.989
201.745
204.511
207.287
210.073
212.868
215.675
218.491
221.317
224.154
227
229.856
232.722
235.597
238.483
241.377
244.282
247.193
250.112
253.048
255.994
258.945
261.905
264.876
267.855
270.844
273.843
276.85
279.867
282.893
285.929
288.972
292.022
295.08
298.144
301.212
304.234
307.358
310.661
)
;

boundaryField
{
    sideLeft
    {
        type            symmetryPlane;
        value           uniform 0;
    }
    sideRight
    {
        type            calculated;
        value           uniform 1087.96;
    }
    topbottom
    {
        type            empty;
        value           nonuniform 0();
    }
    frontback
    {
        type            empty;
        value           nonuniform 0();
    }
}


// ************************************************************************* //
