/*--------------------------------*- C++ -*----------------------------------*\
| =========                 |                                                 |
| \\      /  F ield         | OpenFOAM: The Open Source CFD Toolbox           |
|  \\    /   O peration     | Version:  2.4.0                                 |
|   \\  /    A nd           | Web:      www.OpenFOAM.org                      |
|    \\/     M anipulation  |                                                 |
\*---------------------------------------------------------------------------*/
FoamFile
{
    version     2.0;
    format      ascii;
    class       volVectorField;
    location    "0.04";
    object      U.airMean;
}
// * * * * * * * * * * * * * * * * * * * * * * * * * * * * * * * * * * * * * //

dimensions      [0 1 -1 0 0 0 0];

internalField   nonuniform List<vector> 
1000
(
(-6.69863e-14 0 0)
(-1.70886e-14 0 0)
(-4.13713e-14 0 0)
(4.76056e-15 0 0)
(-6.4073e-14 0 0)
(3.7481e-14 0 0)
(-2.8617e-14 0 0)
(-6.75019e-15 0 0)
(-6.14618e-15 0 0)
(1.03561e-14 0 0)
(2.69651e-14 0 0)
(-3.50474e-14 0 0)
(4.20285e-14 0 0)
(-2.41575e-15 0 0)
(4.84768e-14 0 0)
(5.43743e-14 0 0)
(6.74661e-14 0 0)
(5.37703e-14 0 0)
(6.92068e-14 0 0)
(1.49215e-14 0 0)
(1.06972e-13 0 0)
(1.41754e-14 0 0)
(5.8069e-14 0 0)
(1.29852e-14 0 0)
(-2.34481e-15 0 0)
(1.19021e-15 0 0)
(1.4122e-14 0 0)
(2.06945e-14 0 0)
(-3.74099e-14 0 0)
(5.96499e-14 0 0)
(-1.07824e-14 0 0)
(2.13198e-16 0 0)
(3.52251e-14 0 0)
(-2.02498e-15 0 0)
(4.73576e-14 0 0)
(-3.61665e-14 0 0)
(6.67731e-14 0 0)
(-1.28252e-14 0 0)
(4.99511e-14 0 0)
(-1.06574e-15 0 0)
(7.30437e-14 0 0)
(1.38565e-15 0 0)
(2.1334e-14 0 0)
(1.82965e-14 0 0)
(3.98081e-14 0 0)
(3.64686e-14 0 0)
(1.7284e-14 0 0)
(5.00222e-14 0 0)
(2.79421e-14 0 0)
(2.79065e-14 0 0)
(-3.52251e-14 0 0)
(2.74269e-14 0 0)
(5.95086e-15 0 0)
(5.34327e-14 0 0)
(2.98961e-14 0 0)
(4.90807e-14 0 0)
(8.58336e-14 0 0)
(5.90994e-14 0 0)
(6.00231e-14 0 0)
(7.0468e-14 0 0)
(3.53496e-14 0 0)
(7.79465e-14 0 0)
(6.00586e-14 0 0)
(7.82663e-14 0 0)
(1.06368e-13 0 0)
(1.12621e-13 0 0)
(1.35643e-13 0 0)
(1.06155e-13 0 0)
(6.57075e-14 0 0)
(9.83035e-14 0 0)
(1.31097e-14 0 0)
(6.81764e-14 0 0)
(-7.17635e-15 0 0)
(3.39461e-14 0 0)
(-2.78894e-15 0 0)
(-4.66292e-14 0 0)
(2.96117e-14 0 0)
(-6.37355e-14 0 0)
(-3.24186e-14 0 0)
(-3.17968e-14 0 0)
(2.87764e-15 0 0)
(-3.55982e-14 0 0)
(-4.60431e-14 0 0)
(-3.38396e-14 0 0)
(-7.58326e-14 0 0)
(-5.63994e-14 0 0)
(-1.02265e-13 0 0)
(-7.64012e-14 0 0)
(-1.13189e-13 0 0)
(-1.39462e-13 0 0)
(-8.59225e-14 0 0)
(-1.06919e-13 0 0)
(-9.16422e-14 0 0)
(-5.28289e-14 0 0)
(-4.44089e-14 0 0)
(-3.55417e-16 0 0)
(-7.0539e-14 0 0)
(2.13026e-16 0 0)
(-5.76605e-14 0 0)
(-5.02354e-14 0 0)
(-9.43422e-14 0 0)
(-8.01137e-14 0 0)
(-9.80016e-14 0 0)
(-9.88721e-14 0 0)
(-1.1994e-13 0 0)
(-1.45022e-13 0 0)
(-1.14877e-13 0 0)
(-1.77778e-13 0 0)
(-2.13554e-13 0 0)
(-1.74261e-13 0 0)
(-2.05258e-13 0 0)
(-1.69109e-13 0 0)
(-1.74882e-13 0 0)
(-1.28306e-13 0 0)
(-1.54046e-13 0 0)
(-1.36442e-13 0 0)
(-7.61347e-14 0 0)
(-4.83879e-14 0 0)
(-3.46923e-14 0 0)
(-2.91855e-14 0 0)
(7.01662e-15 0 0)
(4.59365e-14 0 0)
(4.18333e-14 0 0)
(5.63816e-14 0 0)
(5.29177e-14 0 0)
(6.6791e-14 0 0)
(9.06297e-14 0 0)
(5.39302e-14 0 0)
(9.23172e-14 0 0)
(-3.05523e-15 0 0)
(7.93675e-14 0 0)
(-2.54551e-14 0 0)
(8.86403e-15 0 0)
(2.13161e-15 0 0)
(3.86535e-14 0 0)
(5.18702e-15 0 0)
(4.16023e-14 0 0)
(6.17284e-14 0 0)
(8.69526e-14 0 0)
(7.11254e-14 0 0)
(8.72546e-14 0 0)
(9.26015e-14 0 0)
(3.73746e-14 0 0)
(8.57802e-14 0 0)
(3.83516e-14 0 0)
(6.75192e-14 0 0)
(4.63452e-14 0 0)
(3.42126e-14 0 0)
(2.06057e-14 0 0)
(1.36777e-15 0 0)
(-2.61479e-14 0 0)
(-2.0517e-14 0 0)
(-4.10693e-14 0 0)
(-3.88134e-14 0 0)
(-2.82441e-14 0 0)
(-3.13704e-14 0 0)
(-1.99485e-14 0 0)
(-4.41247e-14 0 0)
(-6.01119e-14 0 0)
(-8.70237e-14 0 0)
(-1.10187e-13 0 0)
(-6.95799e-14 0 0)
(-8.57269e-14 0 0)
(-4.17444e-14 0 0)
(-6.2208e-14 0 0)
(-4.79616e-14 0 0)
(-6.15508e-14 0 0)
(-5.55112e-14 0 0)
(-5.03598e-14 0 0)
(-1.03402e-13 0 0)
(-6.45529e-14 0 0)
(-1.04769e-13 0 0)
(-1.0882e-13 0 0)
(-1.01501e-13 0 0)
(-1.55236e-13 0 0)
(-9.29569e-14 0 0)
(-1.45643e-13 0 0)
(-9.94939e-14 0 0)
(-1.67652e-13 0 0)
(-1.42535e-13 0 0)
(-1.42855e-13 0 0)
(-1.08518e-13 0 0)
(-1.23883e-13 0 0)
(-1.61684e-13 0 0)
(-9.95471e-14 0 0)
(-1.55644e-13 0 0)
(-7.84974e-14 0 0)
(-1.83426e-13 0 0)
(-6.71287e-14 0 0)
(-1.193e-13 0 0)
(-7.25998e-14 0 0)
(-9.40047e-14 0 0)
(-3.38219e-14 0 0)
(-6.60805e-14 0 0)
(-6.86917e-14 0 0)
(-6.56187e-14 0 0)
(-7.65787e-14 0 0)
(-7.79466e-14 0 0)
(-8.92086e-14 0 0)
(-3.36087e-14 0 0)
(-4.33609e-14 0 0)
(-7.58681e-14 0 0)
(-1.54543e-14 0 0)
(-4.66827e-14 0 0)
(-4.83172e-15 0 0)
(-2.73736e-14 0 0)
(4.03232e-14 0 0)
(-9.32578e-15 0 0)
(-6.57231e-16 0 0)
(1.24345e-14 0 0)
(3.72679e-14 0 0)
(3.91687e-14 0 0)
(4.69668e-14 0 0)
(9.26548e-14 0 0)
(7.82485e-14 0 0)
(1.33458e-13 0 0)
(8.62777e-14 0 0)
(1.10134e-13 0 0)
(8.57271e-14 0 0)
(1.1994e-13 0 0)
(1.11626e-13 0 0)
(8.54961e-14 0 0)
(9.20508e-14 0 0)
(1.03881e-13 0 0)
(3.2241e-14 0 0)
(1.33564e-13 0 0)
(9.9778e-14 0 0)
(7.21912e-14 0 0)
(1.31592e-13 0 0)
(9.46443e-14 0 0)
(9.04343e-14 0 0)
(7.51754e-14 0 0)
(3.28272e-14 0 0)
(9.64383e-14 0 0)
(6.116e-14 0 0)
(7.09654e-14 0 0)
(2.89902e-14 0 0)
(2.34302e-14 0 0)
(4.47639e-15 0 0)
(-2.68051e-14 0 0)
(2.38209e-14 0 0)
(9.59223e-16 0 0)
(-4.78194e-14 0 0)
(3.86357e-14 0 0)
(-3.51008e-14 0 0)
(-2.13163e-14 0 0)
(-7.67031e-14 0 0)
(-6.09468e-14 0 0)
(-7.12319e-14 0 0)
(-4.60077e-14 0 0)
(-1.01945e-13 0 0)
(-4.56348e-14 0 0)
(-7.39497e-14 0 0)
(-9.12336e-14 0 0)
(-4.27037e-14 0 0)
(-6.60093e-14 0 0)
(-2.29861e-14 0 0)
(-5.85309e-14 0 0)
(-6.98124e-15 0 0)
(-9.99021e-14 0 0)
(8.59735e-15 0 0)
(-8.49275e-14 0 0)
(-3.47279e-14 0 0)
(-7.11431e-14 0 0)
(-8.86224e-14 0 0)
(-4.87611e-14 0 0)
(-6.91002e-14 0 0)
(-2.70717e-14 0 0)
(-6.49791e-14 0 0)
(-5.06439e-14 0 0)
(-6.61515e-14 0 0)
(-1.8261e-14 0 0)
(-3.43547e-14 0 0)
(-2.6823e-14 0 0)
(4.13889e-15 0 0)
(1.22746e-14 0 0)
(-1.5241e-14 0 0)
(8.53893e-14 0 0)
(2.01973e-14 0 0)
(7.69695e-14 0 0)
(7.77867e-14 0 0)
(1.01963e-13 0 0)
(9.34186e-14 0 0)
(3.94353e-14 0 0)
(1.67546e-13 0 0)
(1.06848e-13 0 0)
(1.52429e-13 0 0)
(1.12834e-13 0 0)
(1.4218e-13 0 0)
(1.282e-13 0 0)
(1.54543e-13 0 0)
(1.46425e-13 0 0)
(1.47669e-13 0 0)
(1.1859e-13 0 0)
(1.38094e-13 0 0)
(1.52021e-13 0 0)
(1.05178e-13 0 0)
(1.89573e-13 0 0)
(1.56746e-13 0 0)
(1.38414e-13 0 0)
(1.7403e-13 0 0)
(1.65059e-13 0 0)
(1.97424e-13 0 0)
(1.81366e-13 0 0)
(1.28946e-13 0 0)
(2.00497e-13 0 0)
(1.17062e-13 0 0)
(1.72129e-13 0 0)
(1.16689e-13 0 0)
(1.22782e-13 0 0)
(1.11591e-13 0 0)
(8.1375e-14 0 0)
(7.86393e-14 0 0)
(6.05383e-14 0 0)
(1.06741e-13 0 0)
(1.01483e-13 0 0)
(1.23972e-13 0 0)
(9.70601e-14 0 0)
(1.15907e-13 0 0)
(1.22942e-13 0 0)
(1.25784e-13 0 0)
(1.01288e-13 0 0)
(1.63993e-13 0 0)
(1.24612e-13 0 0)
(1.59854e-13 0 0)
(1.02602e-13 0 0)
(9.08074e-14 0 0)
(1.20384e-13 0 0)
(7.91545e-14 0 0)
(7.71294e-14 0 0)
(7.93854e-14 0 0)
(8.32934e-14 0 0)
(3.60246e-14 0 0)
(1.12941e-13 0 0)
(2.01085e-14 0 0)
(5.80157e-14 0 0)
(-7.40738e-15 0 0)
(-3.46922e-14 0 0)
(-3.16191e-15 0 0)
(5.36454e-15 0 0)
(-1.36601e-14 0 0)
(2.69995e-15 0 0)
(-1.13687e-14 0 0)
(-6.45882e-14 0 0)
(-1.0303e-14 0 0)
(-9.97956e-14 0 0)
(-3.47635e-14 0 0)
(-1.35287e-13 0 0)
(-6.91004e-14 0 0)
(-1.14291e-13 0 0)
(-9.32944e-14 0 0)
(-1.12035e-13 0 0)
(-8.02381e-14 0 0)
(-9.40403e-14 0 0)
(-4.15668e-14 0 0)
(-6.24213e-14 0 0)
(-1.0635e-13 0 0)
(-5.96502e-14 0 0)
(-1.27525e-13 0 0)
(-7.69341e-14 0 0)
(-9.65627e-14 0 0)
(-8.71481e-14 0 0)
(-1.43245e-13 0 0)
(-1.41558e-13 0 0)
(-1.05747e-13 0 0)
(-1.26565e-13 0 0)
(-1.67173e-13 0 0)
(-1.33511e-13 0 0)
(-1.85896e-13 0 0)
(-1.6815e-13 0 0)
(-1.55414e-13 0 0)
(-1.40368e-13 0 0)
(-1.83462e-13 0 0)
(-1.52784e-13 0 0)
(-1.6632e-13 0 0)
(-8.20678e-14 0 0)
(-8.94218e-14 0 0)
(-6.44286e-14 0 0)
(-9.73976e-14 0 0)
(-3.99859e-14 0 0)
(-1.23705e-13 0 0)
(-4.70736e-14 0 0)
(-9.06652e-14 0 0)
(-9.68292e-14 0 0)
(-7.7094e-14 0 0)
(-1.59907e-13 0 0)
(-5.88864e-14 0 0)
(-1.5028e-13 0 0)
(-7.91191e-14 0 0)
(-1.33902e-13 0 0)
(-9.9103e-14 0 0)
(-1.05285e-13 0 0)
(-9.53371e-14 0 0)
(-1.40652e-13 0 0)
(-6.70932e-14 0 0)
(-1.17115e-13 0 0)
(-7.89058e-14 0 0)
(-9.31166e-14 0 0)
(-4.8388e-14 0 0)
(-4.79439e-14 0 0)
(-7.2049e-14 0 0)
(-7.83552e-14 0 0)
(-1.16866e-13 0 0)
(-4.94184e-14 0 0)
(-8.99369e-14 0 0)
(-9.73265e-14 0 0)
(-7.18715e-14 0 0)
(-1.08677e-13 0 0)
(-9.08607e-14 0 0)
(-7.9563e-14 0 0)
(-1.07416e-13 0 0)
(-8.2796e-14 0 0)
(-1.18021e-13 0 0)
(-9.82681e-14 0 0)
(-7.54241e-14 0 0)
(-1.30598e-13 0 0)
(-6.99707e-14 0 0)
(-7.91723e-14 0 0)
(-1.30527e-13 0 0)
(-1.48683e-14 0 0)
(-7.58326e-14 0 0)
(-5.21539e-14 0 0)
(-1.18412e-13 0 0)
(-1.98953e-14 0 0)
(-7.65965e-14 0 0)
(-4.80504e-14 0 0)
(-1.48149e-14 0 0)
(5.52445e-15 0 0)
(1.12442e-14 0 0)
(-4.81213e-14 0 0)
(2.13694e-14 0 0)
(-4.16021e-14 0 0)
(-3.49232e-14 0 0)
(-2.41594e-15 0 0)
(-2.86526e-14 0 0)
(-7.11253e-14 0 0)
(-8.08065e-14 0 0)
(-1.1326e-13 0 0)
(-8.46079e-14 0 0)
(-1.33848e-13 0 0)
(-6.16752e-14 0 0)
(-1.05302e-13 0 0)
(-8.29203e-14 0 0)
(-5.35039e-14 0 0)
(-5.97921e-14 0 0)
(-4.13537e-14 0 0)
(-7.06989e-14 0 0)
(-1.79413e-14 0 0)
(-3.60423e-14 0 0)
(-5.61151e-14 0 0)
(-4.59189e-14 0 0)
(-5.23314e-14 0 0)
(-1.58104e-15 0 0)
(-1.60228e-14 0 0)
(-7.40918e-14 0 0)
(-2.39098e-14 0 0)
(-7.78932e-14 0 0)
(-9.39693e-14 0 0)
(-9.40226e-14 0 0)
(-1.46976e-13 0 0)
(-8.68818e-14 0 0)
(-1.52198e-13 0 0)
(-1.16067e-13 0 0)
(-1.65148e-13 0 0)
(-1.23581e-13 0 0)
(-1.98757e-13 0 0)
(-1.73017e-13 0 0)
(-1.63762e-13 0 0)
(-1.1271e-13 0 0)
(-1.58309e-13 0 0)
(-1.09974e-13 0 0)
(-1.74403e-13 0 0)
(-1.13776e-13 0 0)
(-1.37774e-13 0 0)
(-1.65894e-13 0 0)
(-9.55681e-14 0 0)
(-1.63247e-13 0 0)
(-7.09655e-14 0 0)
(-9.75042e-14 0 0)
(-6.29186e-14 0 0)
(-3.471e-14 0 0)
(-4.15668e-14 0 0)
(-8.64197e-14 0 0)
(-2.30394e-14 0 0)
(-3.62732e-14 0 0)
(-6.49968e-14 0 0)
(-4.64873e-14 0 0)
(-6.90824e-14 0 0)
(-6.83009e-14 0 0)
(-5.03419e-14 0 0)
(-3.31824e-14 0 0)
(-3.87246e-14 0 0)
(-4.52438e-14 0 0)
(-6.39488e-14 0 0)
(-8.16414e-14 0 0)
(-7.60637e-14 0 0)
(-1.00346e-13 0 0)
(-9.80016e-14 0 0)
(-8.90665e-14 0 0)
(-5.99699e-14 0 0)
(-5.12657e-14 0 0)
(-4.97735e-14 0 0)
(-4.18154e-14 0 0)
(-3.79074e-14 0 0)
(-4.14957e-14 0 0)
(-4.18332e-14 0 0)
(-8.13215e-14 0 0)
(-3.97727e-14 0 0)
(-1.02389e-13 0 0)
(-3.62555e-14 0 0)
(-6.40021e-14 0 0)
(-2.2613e-14 0 0)
(-1.47615e-14 0 0)
(-1.6005e-14 0 0)
(-1.64135e-14 0 0)
(4.52971e-14 0 0)
(2.01439e-14 0 0)
(8.21209e-14 0 0)
(6.80877e-14 0 0)
(6.25988e-14 0 0)
(5.21539e-14 0 0)
(6.71995e-14 0 0)
(5.6275e-14 0 0)
(6.54054e-14 0 0)
(8.54961e-14 0 0)
(7.12852e-14 0 0)
(8.11262e-14 0 0)
(3.29871e-14 0 0)
(9.30277e-14 0 0)
(3.90977e-14 0 0)
(7.54062e-14 0 0)
(3.22765e-14 0 0)
(8.63131e-14 0 0)
(4.20465e-14 0 0)
(1.14717e-13 0 0)
(5.86376e-14 0 0)
(1.08056e-13 0 0)
(5.90816e-14 0 0)
(4.5084e-14 0 0)
(4.83879e-14 0 0)
(2.9612e-14 0 0)
(2.2755e-14 0 0)
(-3.36796e-14 0 0)
(2.43005e-14 0 0)
(-3.19566e-14 0 0)
(-5.66658e-15 0 0)
(-4.08614e-16 0 0)
(-1.17595e-14 0 0)
(-4.43556e-14 0 0)
(-1.08891e-14 0 0)
(-1.19726e-14 0 0)
(-6.57249e-15 0 0)
(1.0747e-14 0 0)
(1.71241e-14 0 0)
(5.67723e-14 0 0)
(4.04655e-14 0 0)
(5.54756e-14 0 0)
(4.35741e-14 0 0)
(1.08731e-13 0 0)
(7.04681e-14 0 0)
(5.00222e-14 0 0)
(6.43929e-14 0 0)
(5.13013e-14 0 0)
(7.28128e-14 0 0)
(5.33085e-14 0 0)
(3.60069e-14 0 0)
(1.00417e-13 0 0)
(8.33289e-14 0 0)
(9.04166e-14 0 0)
(9.24416e-14 0 0)
(1.22231e-13 0 0)
(8.5123e-14 0 0)
(6.31673e-14 0 0)
(5.46585e-14 0 0)
(8.0842e-14 0 0)
(6.21015e-14 0 0)
(7.94031e-14 0 0)
(7.37899e-14 0 0)
(5.50316e-14 0 0)
(8.50342e-14 0 0)
(9.28857e-14 0 0)
(8.97238e-14 0 0)
(6.71286e-14 0 0)
(6.02184e-14 0 0)
(2.72671e-14 0 0)
(2.7569e-14 0 0)
(-7.69153e-15 0 0)
(3.59179e-14 0 0)
(2.32702e-15 0 0)
(4.81393e-14 0 0)
(-8.91725e-15 0 0)
(4.1993e-14 0 0)
(-1.25588e-14 0 0)
(1.05516e-14 0 0)
(1.77632e-15 0 0)
(1.18305e-14 0 0)
(-1.49202e-15 0 0)
(6.89048e-14 0 0)
(5.06795e-14 0 0)
(3.17258e-14 0 0)
(5.93658e-14 0 0)
(3.21521e-14 0 0)
(2.39098e-14 0 0)
(5.09636e-14 0 0)
(5.02531e-14 0 0)
(9.16609e-15 0 0)
(5.24735e-14 0 0)
(3.83694e-15 0 0)
(1.91491e-14 0 0)
(3.33957e-15 0 0)
(2.34834e-14 0 0)
(7.33634e-15 0 0)
(-9.30806e-15 0 0)
(1.59517e-14 0 0)
(1.2772e-14 0 0)
(3.29336e-14 0 0)
(-4.81036e-14 0 0)
(1.00932e-13 0 0)
(-2.14583e-14 0 0)
(-3.5704e-15 0 0)
(-7.86923e-15 0 0)
(3.94528e-14 0 0)
(1.42286e-14 0 0)
(2.85638e-14 0 0)
(4.22062e-14 0 0)
(6.36823e-14 0 0)
(3.33245e-14 0 0)
(6.38245e-14 0 0)
(4.11228e-14 0 0)
(1.05604e-13 0 0)
(9.65273e-14 0 0)
(7.87814e-14 0 0)
(1.17364e-13 0 0)
(2.68942e-14 0 0)
(1.05551e-13 0 0)
(1.02321e-14 0 0)
(1.66e-13 0 0)
(6.5903e-14 0 0)
(1.38431e-13 0 0)
(7.53532e-14 0 0)
(1.49374e-13 0 0)
(1.16867e-13 0 0)
(1.803e-13 0 0)
(1.6465e-13 0 0)
(1.39071e-13 0 0)
(1.5433e-13 0 0)
(2.00977e-13 0 0)
(1.81881e-13 0 0)
(1.47402e-13 0 0)
(1.55467e-13 0 0)
(1.81064e-13 0 0)
(1.47278e-13 0 0)
(1.65201e-13 0 0)
(1.55058e-13 0 0)
(1.05214e-13 0 0)
(2.04885e-13 0 0)
(8.07179e-14 0 0)
(2.16804e-13 0 0)
(1.17524e-13 0 0)
(1.93694e-13 0 0)
(1.48148e-13 0 0)
(2.41371e-13 0 0)
(1.80815e-13 0 0)
(1.62697e-13 0 0)
(1.86997e-13 0 0)
(1.8181e-13 0 0)
(1.63105e-13 0 0)
(1.56515e-13 0 0)
(1.32161e-13 0 0)
(1.85043e-13 0 0)
(1.32818e-13 0 0)
(1.42002e-13 0 0)
(1.13261e-13 0 0)
(1.498e-13 0 0)
(1.08607e-13 0 0)
(8.05578e-14 0 0)
(5.03064e-14 0 0)
(4.17089e-14 0 0)
(1.78168e-14 0 0)
(-1.87761e-14 0 0)
(-2.83151e-14 0 0)
(-7.46958e-14 0 0)
(-4.72866e-14 0 0)
(-6.93845e-14 0 0)
(-7.51577e-14 0 0)
(-1.41274e-13 0 0)
(-9.6101e-14 0 0)
(-1.65841e-13 0 0)
(-6.19062e-14 0 0)
(-1.42464e-13 0 0)
(-3.88847e-14 0 0)
(-1.3868e-13 0 0)
(-9.10028e-14 0 0)
(-1.1898e-13 0 0)
(-9.55503e-14 0 0)
(-1.07434e-13 0 0)
(-1.16405e-13 0 0)
(-7.22267e-14 0 0)
(-6.95799e-14 0 0)
(-9.46975e-14 0 0)
(-6.83543e-14 0 0)
(-5.09282e-14 0 0)
(-8.6775e-14 0 0)
(-8.91553e-14 0 0)
(-6.92247e-14 0 0)
(-6.62226e-14 0 0)
(-1.55129e-13 0 0)
(-6.77149e-14 0 0)
(-1.26334e-13 0 0)
(-4.80861e-14 0 0)
(-1.53246e-13 0 0)
(-9.98136e-14 0 0)
(-1.23617e-13 0 0)
(-1.27827e-13 0 0)
(-9.73266e-14 0 0)
(-8.66685e-14 0 0)
(-3.66463e-14 0 0)
(-1.08233e-13 0 0)
(-1.2969e-15 0 0)
(-7.0912e-14 0 0)
(2.84927e-14 0 0)
(-9.20157e-15 0 0)
(-3.20631e-14 0 0)
(7.45992e-16 0 0)
(-2.84214e-15 0 0)
(9.82323e-15 0 0)
(-1.31983e-14 0 0)
(1.12266e-14 0 0)
(-1.84741e-14 0 0)
(-6.03949e-16 0 0)
(8.13569e-15 0 0)
(4.44079e-16 0 0)
(-1.42286e-14 0 0)
(-1.21858e-14 0 0)
(1.81185e-15 0 0)
(-3.75343e-14 0 0)
(3.28447e-14 0 0)
(-2.59171e-14 0 0)
(-3.42481e-14 0 0)
(6.02183e-15 0 0)
(3.02158e-14 0 0)
(3.85647e-14 0 0)
(-4.24539e-15 0 0)
(5.26156e-14 0 0)
(7.01663e-15 0 0)
(-2.52419e-14 0 0)
(7.33101e-14 0 0)
(1.68044e-14 0 0)
(5.8673e-14 0 0)
(-8.17065e-16 0 0)
(1.38022e-14 0 0)
(-1.66266e-14 0 0)
(1.65199e-15 0 0)
(-1.93445e-14 0 0)
(-2.48868e-14 0 0)
(-1.26124e-15 0 0)
(-2.49578e-14 0 0)
(-5.96864e-15 0 0)
(-2.24709e-14 0 0)
(-1.3678e-14 0 0)
(-2.18137e-14 0 0)
(-2.41762e-14 0 0)
(-6.24745e-14 0 0)
(-1.58985e-14 0 0)
(-1.07132e-13 0 0)
(-4.05024e-15 0 0)
(-8.23696e-14 0 0)
(-8.64197e-14 0 0)
(-7.1303e-14 0 0)
(-1.05231e-13 0 0)
(-1.20011e-13 0 0)
(-1.25571e-13 0 0)
(-1.32676e-13 0 0)
(-1.4154e-13 0 0)
(-1.55254e-13 0 0)
(-9.56569e-14 0 0)
(-1.04503e-13 0 0)
(-8.34709e-14 0 0)
(-6.56187e-14 0 0)
(-5.93658e-14 0 0)
(-4.97736e-14 0 0)
(-8.49808e-14 0 0)
(-6.6045e-14 0 0)
(-8.35065e-14 0 0)
(-7.83018e-14 0 0)
(-5.17809e-14 0 0)
(-7.05924e-14 0 0)
(-4.55813e-14 0 0)
(-8.87112e-14 0 0)
(-6.95267e-14 0 0)
(-8.93863e-14 0 0)
(-1.01448e-13 0 0)
(-8.46966e-14 0 0)
(-5.50671e-14 0 0)
(-5.99697e-14 0 0)
(-1.32873e-14 0 0)
(-4.33608e-14 0 0)
(1.47792e-14 0 0)
(-4.48886e-14 0 0)
(-9.53191e-14 0 0)
(-1.20083e-14 0 0)
(-8.24406e-14 0 0)
(5.14999e-16 0 0)
(-5.55289e-14 0 0)
(-3.45679e-14 0 0)
(-6.67377e-14 0 0)
(-5.97211e-14 0 0)
(-3.96838e-14 0 0)
(-4.46043e-14 0 0)
(-9.43067e-14 0 0)
(-4.55103e-14 0 0)
(-1.22533e-13 0 0)
(-1.18767e-13 0 0)
(-1.1342e-13 0 0)
(-9.51418e-14 0 0)
(-1.27187e-13 0 0)
(-1.08695e-13 0 0)
(-1.6561e-13 0 0)
(-1.55378e-13 0 0)
(-1.81757e-13 0 0)
(-2.09717e-13 0 0)
(-1.82823e-13 0 0)
(-2.08988e-13 0 0)
(-1.55076e-13 0 0)
(-1.52767e-13 0 0)
(-4.65419e-15 0 0)
(1.71472e-13 0 0)
(6.57625e-13 0 0)
(1.6103e-12 0 0)
(3.48619e-12 0 0)
(7.15724e-12 0 0)
(1.42703e-11 0 0)
(2.81962e-11 0 0)
(5.46423e-11 0 0)
(1.05132e-10 0 0)
(2.00213e-10 0 0)
(3.78406e-10 0 0)
(7.09517e-10 0 0)
(1.3199e-09 0 0)
(2.43603e-09 0 0)
(4.46047e-09 0 0)
(8.10232e-09 0 0)
(1.45989e-08 0 0)
(2.60906e-08 0 0)
(4.62438e-08 0 0)
(8.12805e-08 0 0)
(1.41657e-07 0 0)
(2.44773e-07 0 0)
(4.19293e-07 0 0)
(7.11955e-07 0 0)
(1.19818e-06 0 0)
(1.99837e-06 0 0)
(3.30267e-06 0 0)
(5.4081e-06 0 0)
(8.77327e-06 0 0)
(1.40983e-05 0 0)
(2.24395e-05 0 0)
(3.5371e-05 0 0)
(5.52106e-05 0 0)
(8.53274e-05 0 0)
(0.000130556 0 0)
(0.000197743 0 0)
(0.000296452 0 0)
(0.00043986 0 0)
(0.000645861 0 0)
(0.000938405 0 0)
(0.00134907 0 0)
(0.00191885 0 0)
(0.00270015 0 0)
(0.00375886 0 0)
(0.00517653 0 0)
(0.00705233 0 0)
(0.0095049 0 0)
(0.0126737 0 0)
(0.0167197 0 0)
(0.0218255 0 0)
(0.0281948 0 0)
(0.0360501 0 0)
(0.0456306 0 0)
(0.0571885 0 0)
(0.0709848 0 0)
(0.0872849 0 0)
(0.106353 0 0)
(0.128449 0 0)
(0.153822 0 0)
(0.182706 0 0)
(0.215319 0 0)
(0.25186 0 0)
(0.292505 0 0)
(0.33741 0 0)
(0.386708 0 0)
(0.440515 0 0)
(0.498926 0 0)
(0.56202 0 0)
(0.629864 0 0)
(0.70251 0 0)
(0.780003 0 0)
(0.862379 0 0)
(0.949675 0 0)
(1.04186 0 0)
(1.13913 0 0)
(1.24127 0 0)
(1.34845 0 0)
(1.46065 0 0)
(1.57789 0 0)
(1.70019 0 0)
(1.82758 0 0)
(1.96005 0 0)
(2.09764 0 0)
(2.24037 0 0)
(2.38825 0 0)
(2.5413 0 0)
(2.69954 0 0)
(2.863 0 0)
(3.0317 0 0)
(3.20565 0 0)
(3.38489 0 0)
(3.56943 0 0)
(3.75931 0 0)
(3.95453 0 0)
(4.15514 0 0)
(4.36116 0 0)
(4.57262 0 0)
(4.78954 0 0)
(5.01195 0 0)
(5.23989 0 0)
(5.47338 0 0)
(5.71246 0 0)
(5.95715 0 0)
(6.2075 0 0)
(6.46353 0 0)
(6.72527 0 0)
(6.99277 0 0)
(7.26605 0 0)
(7.54515 0 0)
(7.83012 0 0)
(8.12098 0 0)
(8.41777 0 0)
(8.72053 0 0)
(9.02929 0 0)
(9.3441 0 0)
(9.66499 0 0)
(9.99201 0 0)
(10.3252 0 0)
(10.6645 0 0)
(11.0101 0 0)
(11.362 0 0)
(11.7202 0 0)
(12.0847 0 0)
(12.4556 0 0)
(12.8329 0 0)
(13.2167 0 0)
(13.6069 0 0)
(14.0038 0 0)
(14.4072 0 0)
(14.8172 0 0)
(15.2338 0 0)
(15.6572 0 0)
(16.0873 0 0)
(16.5242 0 0)
(16.968 0 0)
(17.4186 0 0)
(17.8761 0 0)
(18.3406 0 0)
(18.8122 0 0)
(19.2908 0 0)
(19.7764 0 0)
(20.2694 0 0)
(20.7693 0 0)
(21.277 0 0)
(21.791 0 0)
(22.3141 0 0)
(22.8416 0 0)
(23.3817 0 0)
(23.921 0 0)
(24.4808 0 0)
(25.0289 0 0)
(25.6122 0 0)
(26.1655 0 0)
(26.776 0 0)
(27.3323 0 0)
(27.9715 0 0)
(28.5304 0 0)
(29.1989 0 0)
(29.7599 0 0)
(30.4591 0 0)
(31.0212 0 0)
(31.7522 0 0)
(32.3146 0 0)
(33.0791 0 0)
(33.6402 0 0)
(34.4401 0 0)
(34.9978 0 0)
(35.8346 0 0)
(36.3855 0 0)
(37.26 0 0)
(37.7922 0 0)
(38.7017 0 0)
(39.1647 0 0)
(40.5982 0 0)
)
;

boundaryField
{
    sideLeft
    {
        type            symmetryPlane;
    }
    sideRight
    {
        type            calculated;
        value           uniform (40.2842 0 0);
    }
    topbottom
    {
        type            empty;
    }
    frontback
    {
        type            empty;
    }
}


// ************************************************************************* //
