/*--------------------------------*- C++ -*----------------------------------*\
| =========                 |                                                 |
| \\      /  F ield         | OpenFOAM: The Open Source CFD Toolbox           |
|  \\    /   O peration     | Version:  2.4.0                                 |
|   \\  /    A nd           | Web:      www.OpenFOAM.org                      |
|    \\/     M anipulation  |                                                 |
\*---------------------------------------------------------------------------*/
FoamFile
{
    version     2.0;
    format      ascii;
    class       volVectorField;
    location    "0.04";
    object      U.air;
}
// * * * * * * * * * * * * * * * * * * * * * * * * * * * * * * * * * * * * * //

dimensions      [0 1 -1 0 0 0 0];

internalField   nonuniform List<vector> 
1000
(
(-1.20792e-13 0 0)
(-9.94761e-14 0 0)
(-1.20792e-13 0 0)
(-7.10545e-14 0 0)
(-1.56319e-13 0 0)
(-1.98952e-13 0 0)
(-3.62377e-13 0 0)
(-1.27898e-13 0 0)
(-8.52651e-14 0 0)
(7.10541e-15 0 0)
(-2.27374e-13 0 0)
(-1.13687e-13 0 0)
(1.13687e-13 0 0)
(3.55274e-14 0 0)
(5.04485e-13 0 0)
(3.33955e-13 0 0)
(3.62377e-13 0 0)
(1.77636e-13 0 0)
(2.70006e-13 0 0)
(2.8422e-14 0 0)
(-9.94764e-14 0 0)
(-1.35003e-13 0 0)
(-2.84219e-14 0 0)
(-1.06581e-13 0 0)
(2.13163e-14 0 0)
(2.13163e-13 0 0)
(-2.4869e-13 0 0)
(-3.55272e-13 0 0)
(-5.68434e-13 0 0)
(-6.46594e-13 0 0)
(-7.95808e-13 0 0)
(-7.17648e-13 0 0)
(-5.61329e-13 0 0)
(-5.68434e-13 0 0)
(-3.48166e-13 0 0)
(-3.97904e-13 0 0)
(-1.27898e-13 0 0)
(-1.27897e-13 0 0)
(4.26323e-14 0 0)
(-5.68432e-14 0 0)
(1.06581e-13 0 0)
(5.54224e-13 0 0)
(7.38964e-13 0 0)
(5.82645e-13 0 0)
(6.39488e-13 0 0)
(3.62377e-13 0 0)
(2.84218e-14 0 0)
(2.13162e-14 0 0)
(1.63425e-13 0 0)
(1.06581e-13 0 0)
(2.53638e-19 0 0)
(-1.4211e-14 0 0)
(-3.4106e-13 0 0)
(-4.76064e-13 0 0)
(-4.83169e-13 0 0)
(-1.35003e-13 0 0)
(-9.94762e-14 0 0)
(-3.48166e-13 0 0)
(-1.42109e-13 0 0)
(-1.49214e-13 0 0)
(-2.34479e-13 0 0)
(-1.20792e-13 0 0)
(6.39489e-14 0 0)
(1.56319e-13 0 0)
(3.12639e-13 0 0)
(6.53699e-13 0 0)
(8.02913e-13 0 0)
(6.82121e-13 0 0)
(2.91323e-13 0 0)
(2.98428e-13 0 0)
(-8.52649e-14 0 0)
(-3.05534e-13 0 0)
(-3.97904e-13 0 0)
(-4.9738e-13 0 0)
(-6.96332e-13 0 0)
(-7.24753e-13 0 0)
(-5.11591e-13 0 0)
(-3.69482e-13 0 0)
(-2.41585e-13 0 0)
(9.9476e-14 0 0)
(1.77635e-13 0 0)
(1.27898e-13 0 0)
(2.13163e-14 0 0)
(-1.13687e-13 0 0)
(-1.56319e-13 0 0)
(-1.29173e-19 0 0)
(2.13163e-13 0 0)
(1.56319e-13 0 0)
(-9.9476e-14 0 0)
(-2.34479e-13 0 0)
(-1.35003e-13 0 0)
(-1.27898e-13 0 0)
(-3.12639e-13 0 0)
(-9.23706e-14 0 0)
(-3.55271e-14 0 0)
(-7.10571e-15 0 0)
(1.49214e-13 0 0)
(-2.8422e-14 0 0)
(-1.27898e-13 0 0)
(8.5265e-14 0 0)
(-8.5265e-14 0 0)
(1.42108e-14 0 0)
(1.20792e-13 0 0)
(9.23705e-14 0 0)
(1.27898e-13 0 0)
(-1.42107e-14 0 0)
(-1.42109e-13 0 0)
(-4.26325e-14 0 0)
(-2.20268e-13 0 0)
(-4.68958e-13 0 0)
(-6.89226e-13 0 0)
(-6.46594e-13 0 0)
(-6.32383e-13 0 0)
(-5.40013e-13 0 0)
(-3.69482e-13 0 0)
(-6.39487e-14 0 0)
(-1.63425e-13 0 0)
(-3.12639e-13 0 0)
(-3.33955e-13 0 0)
(-2.20268e-13 0 0)
(-2.27374e-13 0 0)
(-3.83693e-13 0 0)
(-1.06581e-13 0 0)
(-2.62901e-13 0 0)
(-3.19744e-13 0 0)
(-2.84217e-13 0 0)
(-2.13163e-13 0 0)
(-1.63425e-13 0 0)
(-1.13687e-13 0 0)
(-2.27373e-13 0 0)
(-1.77636e-13 0 0)
(-3.19744e-13 0 0)
(-1.42109e-13 0 0)
(7.10543e-14 0 0)
(2.91322e-13 0 0)
(4.97382e-14 0 0)
(1.42109e-13 0 0)
(1.56319e-13 0 0)
(2.55795e-13 0 0)
(4.68958e-13 0 0)
(3.12639e-13 0 0)
(4.90274e-13 0 0)
(5.61329e-13 0 0)
(6.11067e-13 0 0)
(5.04485e-13 0 0)
(9.23704e-14 0 0)
(7.81597e-14 0 0)
(2.91323e-13 0 0)
(1.35003e-13 0 0)
(-2.91323e-13 0 0)
(-6.11067e-13 0 0)
(-4.9738e-13 0 0)
(-3.83693e-13 0 0)
(-4.26326e-13 0 0)
(-4.47642e-13 0 0)
(-2.62901e-13 0 0)
(-4.26326e-14 0 0)
(-1.91847e-13 0 0)
(-1.7053e-13 0 0)
(-2.84217e-14 0 0)
(1.27898e-13 0 0)
(3.69482e-13 0 0)
(4.40537e-13 0 0)
(4.05009e-13 0 0)
(5.68434e-13 0 0)
(5.96856e-13 0 0)
(1.77636e-13 0 0)
(9.94759e-14 0 0)
(-1.63425e-13 0 0)
(-1.20792e-13 0 0)
(-3.48166e-13 0 0)
(-3.83693e-13 0 0)
(-4.26326e-13 0 0)
(-2.4869e-13 0 0)
(2.12056e-19 0 0)
(6.39486e-14 0 0)
(2.84219e-14 0 0)
(2.34479e-13 0 0)
(2.91323e-13 0 0)
(1.27898e-13 0 0)
(-4.26325e-14 0 0)
(-3.05533e-13 0 0)
(-4.9738e-13 0 0)
(-5.82645e-13 0 0)
(-4.90275e-13 0 0)
(-5.32907e-13 0 0)
(-5.18697e-13 0 0)
(-9.02389e-13 0 0)
(-6.46594e-13 0 0)
(-6.18172e-13 0 0)
(-3.55272e-13 0 0)
(-3.26849e-13 0 0)
(-2.13163e-13 0 0)
(2.55795e-13 0 0)
(2.4869e-13 0 0)
(-4.9738e-14 0 0)
(-6.39488e-14 0 0)
(1.63425e-13 0 0)
(2.91323e-13 0 0)
(2.55795e-13 0 0)
(7.10536e-15 0 0)
(8.52653e-14 0 0)
(2.34479e-13 0 0)
(-6.39487e-14 0 0)
(6.39487e-14 0 0)
(1.91847e-13 0 0)
(3.55271e-13 0 0)
(1.49214e-13 0 0)
(1.13687e-13 0 0)
(-1.20792e-13 0 0)
(-1.91847e-13 0 0)
(5.4053e-21 0 0)
(4.63031e-20 0 0)
(1.49214e-13 0 0)
(1.57125e-19 0 0)
(9.23704e-14 0 0)
(-4.97379e-14 0 0)
(-9.23707e-14 0 0)
(-3.5527e-14 0 0)
(-7.10544e-14 0 0)
(4.26325e-14 0 0)
(-1.7053e-13 0 0)
(-1.63425e-13 0 0)
(4.97378e-14 0 0)
(-1.84741e-13 0 0)
(-7.816e-14 0 0)
(-2.27374e-13 0 0)
(-3.05533e-13 0 0)
(-2.55796e-13 0 0)
(-5.68434e-13 0 0)
(-1.91847e-13 0 0)
(-2.84218e-14 0 0)
(1.06582e-13 0 0)
(4.40536e-13 0 0)
(2.41585e-13 0 0)
(4.97379e-14 0 0)
(7.81598e-14 0 0)
(-1.77636e-13 0 0)
(-2.62901e-13 0 0)
(2.84219e-14 0 0)
(9.23704e-14 0 0)
(-7.81598e-14 0 0)
(-3.12639e-13 0 0)
(-2.13163e-13 0 0)
(-3.26849e-13 0 0)
(-3.90799e-13 0 0)
(-2.91322e-13 0 0)
(4.9738e-14 0 0)
(-2.84217e-14 0 0)
(2.84217e-13 0 0)
(2.4869e-13 0 0)
(1.49214e-13 0 0)
(1.20792e-13 0 0)
(-3.5527e-14 0 0)
(-7.10558e-15 0 0)
(-9.94759e-14 0 0)
(2.06057e-13 0 0)
(3.69482e-13 0 0)
(5.75539e-13 0 0)
(3.05534e-13 0 0)
(2.20268e-13 0 0)
(1.13687e-13 0 0)
(9.23704e-14 0 0)
(4.9738e-14 0 0)
(1.27898e-13 0 0)
(7.81596e-14 0 0)
(-1.77636e-13 0 0)
(-6.3949e-14 0 0)
(-2.20268e-13 0 0)
(-4.26326e-14 0 0)
(8.52653e-14 0 0)
(3.33955e-13 0 0)
(9.23706e-14 0 0)
(-1.13687e-13 0 0)
(4.26325e-14 0 0)
(-8.55224e-20 0 0)
(-9.94757e-14 0 0)
(-1.5632e-13 0 0)
(-2.20268e-13 0 0)
(1.84741e-13 0 0)
(5.68435e-14 0 0)
(-1.49214e-13 0 0)
(-9.23706e-14 0 0)
(-1.98952e-13 0 0)
(-2.41585e-13 0 0)
(-2.20268e-13 0 0)
(1.42108e-13 0 0)
(3.2685e-13 0 0)
(3.97904e-13 0 0)
(4.76064e-13 0 0)
(4.54747e-13 0 0)
(3.76588e-13 0 0)
(8.3844e-13 0 0)
(7.31859e-13 0 0)
(4.54747e-13 0 0)
(2.77112e-13 0 0)
(3.55272e-13 0 0)
(6.60805e-13 0 0)
(8.66862e-13 0 0)
(1.00897e-12 0 0)
(9.59233e-13 0 0)
(7.81597e-13 0 0)
(7.31859e-13 0 0)
(8.81073e-13 0 0)
(7.88703e-13 0 0)
(8.3844e-13 0 0)
(8.2423e-13 0 0)
(9.80549e-13 0 0)
(1.10134e-12 0 0)
(1.15108e-12 0 0)
(9.45022e-13 0 0)
(6.46594e-13 0 0)
(6.96332e-13 0 0)
(7.67386e-13 0 0)
(9.23705e-13 0 0)
(8.88179e-13 0 0)
(8.2423e-13 0 0)
(6.89227e-13 0 0)
(6.03961e-13 0 0)
(6.6791e-13 0 0)
(2.20268e-13 0 0)
(1.84741e-13 0 0)
(9.23703e-14 0 0)
(-2.06057e-13 0 0)
(-2.98428e-13 0 0)
(-3.69482e-13 0 0)
(-3.12639e-13 0 0)
(-3.2685e-13 0 0)
(-3.48166e-13 0 0)
(-6.6791e-13 0 0)
(-6.89226e-13 0 0)
(-3.90799e-13 0 0)
(-4.12115e-13 0 0)
(-5.25802e-13 0 0)
(-7.10542e-13 0 0)
(-7.60281e-13 0 0)
(-9.59233e-13 0 0)
(-7.95808e-13 0 0)
(-7.4607e-13 0 0)
(-9.45022e-13 0 0)
(-7.60281e-13 0 0)
(-9.166e-13 0 0)
(-9.80549e-13 0 0)
(-1.03739e-12 0 0)
(-8.45546e-13 0 0)
(-6.96332e-13 0 0)
(-2.13163e-13 0 0)
(-3.69482e-13 0 0)
(-3.76588e-13 0 0)
(-4.83169e-13 0 0)
(-4.1922e-13 0 0)
(-2.34479e-13 0 0)
(-3.41061e-13 0 0)
(-1.49214e-13 0 0)
(-4.26327e-14 0 0)
(-7.81598e-14 0 0)
(-7.81595e-14 0 0)
(1.06581e-13 0 0)
(-7.10518e-15 0 0)
(-9.94761e-14 0 0)
(-1.06581e-13 0 0)
(-2.34479e-13 0 0)
(-3.4106e-13 0 0)
(-2.98428e-13 0 0)
(-5.68436e-14 0 0)
(-7.10543e-14 0 0)
(-4.40536e-13 0 0)
(-2.77112e-13 0 0)
(-2.70006e-13 0 0)
(-1.7053e-13 0 0)
(-2.70006e-13 0 0)
(-2.20268e-13 0 0)
(-1.13687e-13 0 0)
(5.68434e-14 0 0)
(1.06582e-13 0 0)
(3.26849e-13 0 0)
(1.35003e-13 0 0)
(-2.20268e-13 0 0)
(-1.42108e-13 0 0)
(-7.816e-14 0 0)
(-2.91322e-13 0 0)
(-3.90799e-13 0 0)
(-4.26326e-13 0 0)
(-3.12639e-13 0 0)
(-3.05534e-13 0 0)
(-2.77111e-13 0 0)
(-2.27374e-13 0 0)
(-5.68431e-14 0 0)
(-2.46326e-19 0 0)
(-8.5265e-14 0 0)
(1.35003e-13 0 0)
(7.81597e-14 0 0)
(3.62377e-13 0 0)
(3.90799e-13 0 0)
(6.18172e-13 0 0)
(5.7554e-13 0 0)
(3.76588e-13 0 0)
(4.26327e-14 0 0)
(2.55795e-13 0 0)
(1.98952e-13 0 0)
(7.10545e-15 0 0)
(7.81597e-14 0 0)
(1.49214e-13 0 0)
(2.98428e-13 0 0)
(8.52652e-14 0 0)
(-3.55271e-14 0 0)
(1.42107e-14 0 0)
(-1.63425e-13 0 0)
(-5.18696e-13 0 0)
(-6.25278e-13 0 0)
(-6.82121e-13 0 0)
(-6.96332e-13 0 0)
(-8.10019e-13 0 0)
(-9.09495e-13 0 0)
(-1.03739e-12 0 0)
(-1.20082e-12 0 0)
(-1.02318e-12 0 0)
(-1.08713e-12 0 0)
(-9.73443e-13 0 0)
(-7.10543e-13 0 0)
(-5.11591e-13 0 0)
(-2.70006e-13 0 0)
(-4.54747e-13 0 0)
(-1.5632e-13 0 0)
(-9.94758e-14 0 0)
(-1.42108e-14 0 0)
(-1.42109e-14 0 0)
(-7.10549e-15 0 0)
(-1.06582e-13 0 0)
(-3.76587e-13 0 0)
(-3.55272e-13 0 0)
(-1.35003e-13 0 0)
(1.42109e-14 0 0)
(7.10541e-14 0 0)
(-1.06581e-13 0 0)
(-2.70006e-13 0 0)
(-3.90799e-13 0 0)
(-6.60805e-13 0 0)
(-8.02913e-13 0 0)
(-7.88702e-13 0 0)
(-5.61329e-13 0 0)
(-3.83693e-13 0 0)
(-2.84217e-13 0 0)
(-2.70006e-13 0 0)
(2.4869e-13 0 0)
(5.32907e-13 0 0)
(7.74492e-13 0 0)
(8.66862e-13 0 0)
(1.02318e-12 0 0)
(1.03029e-12 0 0)
(9.166e-13 0 0)
(8.31335e-13 0 0)
(7.38964e-13 0 0)
(8.73967e-13 0 0)
(8.81073e-13 0 0)
(9.59233e-13 0 0)
(9.166e-13 0 0)
(7.60281e-13 0 0)
(6.96332e-13 0 0)
(5.96856e-13 0 0)
(4.54747e-13 0 0)
(1.5632e-13 0 0)
(2.91322e-13 0 0)
(3.19744e-13 0 0)
(2.34479e-13 0 0)
(-2.84215e-14 0 0)
(-1.98952e-13 0 0)
(-4.90274e-13 0 0)
(-7.03438e-13 0 0)
(-8.10019e-13 0 0)
(-7.31859e-13 0 0)
(-1.0445e-12 0 0)
(-6.25278e-13 0 0)
(-2.91323e-13 0 0)
(-1.49214e-13 0 0)
(-1.20793e-13 0 0)
(2.8422e-14 0 0)
(5.82645e-13 0 0)
(5.54223e-13 0 0)
(6.11067e-13 0 0)
(6.6791e-13 0 0)
(5.32907e-13 0 0)
(2.91323e-13 0 0)
(2.4869e-13 0 0)
(3.33955e-13 0 0)
(2.41585e-13 0 0)
(-9.9476e-14 0 0)
(-9.94759e-14 0 0)
(4.97381e-14 0 0)
(2.4869e-13 0 0)
(2.27374e-13 0 0)
(1.84741e-13 0 0)
(-4.9738e-14 0 0)
(1.42109e-14 0 0)
(-2.06057e-13 0 0)
(-1.7053e-13 0 0)
(-8.52651e-14 0 0)
(-1.91846e-13 0 0)
(-3.55271e-14 0 0)
(-9.9476e-14 0 0)
(7.1054e-15 0 0)
(-5.68435e-14 0 0)
(-3.55272e-14 0 0)
(-1.42109e-13 0 0)
(-4.40537e-13 0 0)
(-3.41061e-13 0 0)
(-4.61853e-13 0 0)
(-5.18696e-13 0 0)
(-5.68434e-13 0 0)
(-3.48166e-13 0 0)
(-5.8975e-13 0 0)
(-5.61329e-13 0 0)
(-3.41061e-13 0 0)
(-4.05009e-13 0 0)
(-4.1922e-13 0 0)
(-1.77636e-13 0 0)
(-2.13163e-13 0 0)
(-5.68436e-14 0 0)
(1.84741e-13 0 0)
(3.55271e-14 0 0)
(-1.91846e-13 0 0)
(-5.11591e-13 0 0)
(-4.33431e-13 0 0)
(-3.62377e-13 0 0)
(-3.05533e-13 0 0)
(-1.77636e-13 0 0)
(-2.4869e-13 0 0)
(-3.55269e-14 0 0)
(2.34479e-13 0 0)
(2.84219e-14 0 0)
(-1.13687e-13 0 0)
(-3.83693e-13 0 0)
(-4.47642e-13 0 0)
(-5.61329e-13 0 0)
(-6.46594e-13 0 0)
(-8.88178e-13 0 0)
(-6.89227e-13 0 0)
(-5.04485e-13 0 0)
(-4.05009e-13 0 0)
(-4.12115e-13 0 0)
(-4.1922e-13 0 0)
(-4.61853e-13 0 0)
(-3.97904e-13 0 0)
(-2.84217e-13 0 0)
(-4.76063e-13 0 0)
(-5.47118e-13 0 0)
(-3.33955e-13 0 0)
(-9.9476e-14 0 0)
(-5.68433e-14 0 0)
(9.23705e-14 0 0)
(2.41585e-13 0 0)
(1.56319e-13 0 0)
(1.27898e-13 0 0)
(6.18172e-13 0 0)
(7.10543e-13 0 0)
(4.54747e-13 0 0)
(4.68958e-13 0 0)
(3.90799e-13 0 0)
(2.27373e-13 0 0)
(2.84217e-13 0 0)
(4.83169e-13 0 0)
(6.03961e-13 0 0)
(4.9738e-13 0 0)
(3.90798e-13 0 0)
(2.20268e-13 0 0)
(1.98952e-13 0 0)
(5.11591e-13 0 0)
(6.6791e-13 0 0)
(6.11067e-13 0 0)
(5.04485e-13 0 0)
(7.31859e-13 0 0)
(5.61329e-13 0 0)
(6.32383e-13 0 0)
(5.32907e-13 0 0)
(4.40536e-13 0 0)
(2.55795e-13 0 0)
(8.52651e-14 0 0)
(3.48166e-13 0 0)
(3.62377e-13 0 0)
(4.12115e-13 0 0)
(4.83169e-13 0 0)
(5.54223e-13 0 0)
(4.33431e-13 0 0)
(1.20792e-13 0 0)
(-1.56319e-13 0 0)
(-4.97381e-14 0 0)
(2.91323e-13 0 0)
(4.61853e-13 0 0)
(2.4869e-13 0 0)
(2.77111e-13 0 0)
(2.84217e-13 0 0)
(4.9738e-13 0 0)
(4.12115e-13 0 0)
(5.96856e-13 0 0)
(4.61853e-13 0 0)
(6.18172e-13 0 0)
(7.24754e-13 0 0)
(6.25277e-13 0 0)
(4.26326e-13 0 0)
(2.77112e-13 0 0)
(1.84741e-13 0 0)
(2.84218e-14 0 0)
(2.41585e-13 0 0)
(3.2685e-13 0 0)
(4.05009e-13 0 0)
(5.40013e-13 0 0)
(5.61329e-13 0 0)
(2.91323e-13 0 0)
(3.55271e-13 0 0)
(3.90799e-13 0 0)
(5.68434e-13 0 0)
(4.40537e-13 0 0)
(3.55271e-13 0 0)
(3.12639e-13 0 0)
(3.12639e-13 0 0)
(1.77635e-13 0 0)
(-1.49214e-13 0 0)
(8.52645e-14 0 0)
(-1.49214e-13 0 0)
(-5.68434e-14 0 0)
(-1.98952e-13 0 0)
(-1.98952e-13 0 0)
(-4.12115e-13 0 0)
(-2.13163e-13 0 0)
(-3.48166e-13 0 0)
(-3.19744e-13 0 0)
(-4.40536e-13 0 0)
(-4.47642e-13 0 0)
(-3.12639e-13 0 0)
(-8.52653e-14 0 0)
(1.49214e-13 0 0)
(1.20792e-13 0 0)
(3.90798e-13 0 0)
(1.42109e-13 0 0)
(3.76587e-13 0 0)
(3.90799e-13 0 0)
(5.18696e-13 0 0)
(2.41585e-13 0 0)
(1.06581e-13 0 0)
(-9.94757e-14 0 0)
(-7.10545e-14 0 0)
(-1.42108e-13 0 0)
(-1.20792e-13 0 0)
(-2.62901e-13 0 0)
(-2.4869e-13 0 0)
(-3.97904e-13 0 0)
(-2.84217e-13 0 0)
(-1.77636e-13 0 0)
(-2.84217e-13 0 0)
(-5.04485e-13 0 0)
(-6.89227e-13 0 0)
(-5.7554e-13 0 0)
(-4.05009e-13 0 0)
(-4.1922e-13 0 0)
(-4.68958e-13 0 0)
(-3.33956e-13 0 0)
(-3.33955e-13 0 0)
(-9.94765e-14 0 0)
(-9.23703e-14 0 0)
(-2.13165e-14 0 0)
(-4.76063e-13 0 0)
(-7.816e-14 0 0)
(5.68435e-14 0 0)
(1.5632e-13 0 0)
(3.55271e-14 0 0)
(2.20268e-13 0 0)
(3.55271e-13 0 0)
(3.48166e-13 0 0)
(7.10558e-15 0 0)
(-5.68436e-14 0 0)
(-1.84741e-13 0 0)
(-1.91847e-13 0 0)
(-1.20792e-13 0 0)
(-1.84741e-13 0 0)
(-1.13687e-13 0 0)
(-7.10539e-15 0 0)
(3.97904e-13 0 0)
(5.11591e-13 0 0)
(4.76064e-13 0 0)
(3.62377e-13 0 0)
(3.05533e-13 0 0)
(1.13687e-13 0 0)
(-7.81598e-14 0 0)
(-2.77112e-13 0 0)
(-2.62901e-13 0 0)
(-5.11591e-13 0 0)
(-5.82645e-13 0 0)
(-5.75539e-13 0 0)
(-4.26326e-13 0 0)
(-2.91322e-13 0 0)
(1.13686e-13 0 0)
(-1.42108e-13 0 0)
(3.5527e-14 0 0)
(7.81598e-14 0 0)
(6.39488e-14 0 0)
(2.70006e-13 0 0)
(1.63425e-13 0 0)
(3.55271e-14 0 0)
(2.13162e-14 0 0)
(1.84741e-13 0 0)
(1.35003e-13 0 0)
(1.20792e-13 0 0)
(2.13164e-14 0 0)
(-9.23705e-14 0 0)
(-7.10543e-14 0 0)
(-4.26327e-14 0 0)
(9.94764e-14 0 0)
(5.25801e-13 0 0)
(4.90275e-13 0 0)
(6.82121e-13 0 0)
(4.61853e-13 0 0)
(6.46594e-13 0 0)
(9.66338e-13 0 0)
(9.23706e-13 0 0)
(8.88178e-13 0 0)
(5.18696e-13 0 0)
(5.68434e-13 0 0)
(3.55272e-13 0 0)
(2.06057e-13 0 0)
(1.5632e-13 0 0)
(2.55795e-13 0 0)
(2.27374e-13 0 0)
(3.41061e-13 0 0)
(1.84741e-13 0 0)
(1.98952e-13 0 0)
(3.12639e-13 0 0)
(1.13687e-13 0 0)
(7.81596e-14 0 0)
(8.89524e-20 0 0)
(1.35003e-13 0 0)
(2.4869e-13 0 0)
(2.62901e-13 0 0)
(1.06581e-13 0 0)
(-1.84741e-13 0 0)
(1.27898e-13 0 0)
(4.97382e-14 0 0)
(-1.5632e-13 0 0)
(-1.20792e-13 0 0)
(-3.83693e-13 0 0)
(-5.04485e-13 0 0)
(-4.83169e-13 0 0)
(-3.48166e-13 0 0)
(-4.33431e-13 0 0)
(-2.41585e-13 0 0)
(-3.2685e-13 0 0)
(-2.41584e-13 0 0)
(-1.35003e-13 0 0)
(-3.33955e-13 0 0)
(-1.84741e-13 0 0)
(-4.83169e-13 0 0)
(-3.05533e-13 0 0)
(-1.13687e-13 0 0)
(-1.35003e-13 0 0)
(-1.06581e-13 0 0)
(-2.27374e-13 0 0)
(-1.91847e-13 0 0)
(-1.7053e-13 0 0)
(-1.84741e-13 0 0)
(1.42109e-14 0 0)
(-9.9476e-14 0 0)
(-1.56319e-13 0 0)
(-1.13687e-13 0 0)
(-1.91846e-13 0 0)
(-6.39491e-14 0 0)
(-2.98428e-13 0 0)
(-2.84217e-13 0 0)
(-3.19744e-13 0 0)
(-2.70006e-13 0 0)
(7.81596e-14 0 0)
(1.42109e-13 0 0)
(1.84741e-13 0 0)
(9.9476e-14 0 0)
(1.63425e-13 0 0)
(3.90799e-13 0 0)
(-4.97378e-14 0 0)
(-1.77636e-13 0 0)
(-1.63425e-13 0 0)
(-1.35003e-13 0 0)
(-1.35003e-13 0 0)
(-7.81597e-14 0 0)
(-1.27898e-13 0 0)
(-4.61853e-13 0 0)
(-4.12115e-13 0 0)
(-2.41584e-13 0 0)
(4.97381e-14 0 0)
(8.5265e-14 0 0)
(2.20268e-13 0 0)
(9.23704e-14 0 0)
(-1.84741e-13 0 0)
(-1.84741e-13 0 0)
(-3.62377e-13 0 0)
(-4.12115e-13 0 0)
(-1.98952e-13 0 0)
(-2.70006e-13 0 0)
(-4.68958e-13 0 0)
(-3.19744e-13 0 0)
(-4.47642e-13 0 0)
(-2.98428e-13 0 0)
(-3.19744e-13 0 0)
(-4.9738e-13 0 0)
(-6.03962e-13 0 0)
(-5.47118e-13 0 0)
(-4.40537e-13 0 0)
(-3.97904e-13 0 0)
(-1.42109e-13 0 0)
(-3.97904e-13 0 0)
(-3.33955e-13 0 0)
(-2.34479e-13 0 0)
(-3.97904e-13 0 0)
(-6.18172e-13 0 0)
(-7.67386e-13 0 0)
(-1.10134e-12 0 0)
(-1.07292e-12 0 0)
(-1.07292e-12 0 0)
(-8.81073e-13 0 0)
(-8.3844e-13 0 0)
(-1.11555e-12 0 0)
(-1.01608e-12 0 0)
(-9.80549e-13 0 0)
(-4.90275e-13 0 0)
(1.49214e-13 0 0)
(9.87654e-13 0 0)
(2.30926e-12 0 0)
(5.15143e-12 0 0)
(9.97602e-12 0 0)
(1.99023e-11 0 0)
(4.08065e-11 0 0)
(8.26574e-11 0 0)
(1.65045e-10 0 0)
(3.25798e-10 0 0)
(6.37513e-10 0 0)
(1.23618e-09 0 0)
(2.37804e-09 0 0)
(4.53863e-09 0 0)
(8.59561e-09 0 0)
(1.61531e-08 0 0)
(3.01186e-08 0 0)
(5.57162e-08 0 0)
(1.02249e-07 0 0)
(1.86132e-07 0 0)
(3.36062e-07 0 0)
(6.01744e-07 0 0)
(1.06843e-06 0 0)
(1.88095e-06 0 0)
(3.28286e-06 0 0)
(5.67962e-06 0 0)
(9.73928e-06 0 0)
(1.65509e-05 0 0)
(2.78707e-05 0 0)
(4.64996e-05 0 0)
(7.68547e-05 0 0)
(0.000125821 0 0)
(0.000204003 0 0)
(0.000327537 0 0)
(0.000520673 0 0)
(0.000819384 0 0)
(0.00127633 0 0)
(0.00196758 0 0)
(0.00300143 0 0)
(0.00452987 0 0)
(0.00676304 0 0)
(0.00998695 0 0)
(0.0145847 0 0)
(0.0210606 0 0)
(0.0300676 0 0)
(0.0424351 0 0)
(0.059197 0 0)
(0.0816164 0 0)
(0.111204 0 0)
(0.149728 0 0)
(0.199206 0 0)
(0.261888 0 0)
(0.340209 0 0)
(0.436731 0 0)
(0.554062 0 0)
(0.694753 0 0)
(0.861194 0 0)
(1.0555 0 0)
(1.2794 0 0)
(1.53414 0 0)
(1.82044 0 0)
(2.13841 0 0)
(2.48757 0 0)
(2.86685 0 0)
(3.2747 0 0)
(3.70909 0 0)
(4.16769 0 0)
(4.64795 0 0)
(5.1472 0 0)
(5.66281 0 0)
(6.19222 0 0)
(6.73309 0 0)
(7.28328 0 0)
(7.84096 0 0)
(8.40456 0 0)
(8.97279 0 0)
(9.54463 0 0)
(10.1192 0 0)
(10.6962 0 0)
(11.274 0 0)
(11.8551 0 0)
(12.4357 0 0)
(13.0177 0 0)
(13.6007 0 0)
(14.1846 0 0)
(14.7694 0 0)
(15.355 0 0)
(15.9415 0 0)
(16.5289 0 0)
(17.1171 0 0)
(17.7064 0 0)
(18.2966 0 0)
(18.8879 0 0)
(19.4803 0 0)
(20.0738 0 0)
(20.6686 0 0)
(21.2646 0 0)
(21.862 0 0)
(22.4608 0 0)
(23.0611 0 0)
(23.6629 0 0)
(24.2663 0 0)
(24.8714 0 0)
(25.4782 0 0)
(26.0868 0 0)
(26.6973 0 0)
(27.3096 0 0)
(27.9239 0 0)
(28.5401 0 0)
(29.1584 0 0)
(29.7788 0 0)
(30.4014 0 0)
(31.026 0 0)
(31.6529 0 0)
(32.282 0 0)
(32.9133 0 0)
(33.547 0 0)
(34.1829 0 0)
(34.821 0 0)
(35.4615 0 0)
(36.1042 0 0)
(36.7491 0 0)
(37.3962 0 0)
(38.0454 0 0)
(38.6967 0 0)
(39.3501 0 0)
(40.0056 0 0)
(40.6631 0 0)
(41.3226 0 0)
(41.9841 0 0)
(42.6477 0 0)
(43.3133 0 0)
(43.981 0 0)
(44.6509 0 0)
(45.3228 0 0)
(45.9969 0 0)
(46.6733 0 0)
(47.3518 0 0)
(48.0326 0 0)
(48.7158 0 0)
(49.4012 0 0)
(50.0891 0 0)
(50.7793 0 0)
(51.4721 0 0)
(52.167 0 0)
(52.8653 0 0)
(53.5642 0 0)
(54.2697 0 0)
(54.9699 0 0)
(55.6869 0 0)
(56.3812 0 0)
(57.1208 0 0)
(57.7932 0 0)
(58.5764 0 0)
(59.2011 0 0)
(60.0551 0 0)
(60.6087 0 0)
(61.5447 0 0)
(62.0356 0 0)
(63.018 0 0)
(63.5054 0 0)
(64.4849 0 0)
(64.9803 0 0)
(65.9689 0 0)
(66.4636 0 0)
(67.4585 0 0)
(67.958 0 0)
(68.9585 0 0)
(69.46 0 0)
(70.4674 0 0)
(70.9724 0 0)
(71.9835 0 0)
(72.4928 0 0)
(73.5013 0 0)
(74.0164 0 0)
(75.0175 0 0)
(75.5288 0 0)
(76.505 0 0)
(76.9969 0 0)
(78.6223 0 0)
)
;

boundaryField
{
    sideLeft
    {
        type            symmetryPlane;
    }
    sideRight
    {
        type            myWaveTransmissive;
        phi             phi.air;
        rho             rho.air;
        psi             thermo:psi.air;
        gamma           1.4;
        fieldInf        (0 0 0);
        lInf            10;
        value           uniform (78.2523 0 0);
    }
    topbottom
    {
        type            empty;
    }
    frontback
    {
        type            empty;
    }
}


// ************************************************************************* //
