/*--------------------------------*- C++ -*----------------------------------*\
| =========                 |                                                 |
| \\      /  F ield         | OpenFOAM: The Open Source CFD Toolbox           |
|  \\    /   O peration     | Version:  2.4.0                                 |
|   \\  /    A nd           | Web:      www.OpenFOAM.org                      |
|    \\/     M anipulation  |                                                 |
\*---------------------------------------------------------------------------*/
FoamFile
{
    version     2.0;
    format      ascii;
    class       volVectorField;
    location    "0.04";
    object      U.waterMean;
}
// * * * * * * * * * * * * * * * * * * * * * * * * * * * * * * * * * * * * * //

dimensions      [0 1 -1 0 0 0 0];

internalField   nonuniform List<vector> 
1000
(
(-6.93843e-14 0 0)
(-1.97886e-14 0 0)
(-3.90443e-14 0 0)
(6.85667e-15 0 0)
(-6.33092e-14 0 0)
(3.97014e-14 0 0)
(-2.99671e-14 0 0)
(-9.14827e-15 0 0)
(-7.06989e-15 0 0)
(1.06226e-14 0 0)
(2.64144e-14 0 0)
(-3.57402e-14 0 0)
(4.30232e-14 0 0)
(-1.75849e-15 0 0)
(4.91518e-14 0 0)
(5.3717e-14 0 0)
(6.66312e-14 0 0)
(5.60263e-14 0 0)
(6.8514e-14 0 0)
(1.15642e-14 0 0)
(1.08677e-13 0 0)
(1.63959e-14 0 0)
(5.68256e-14 0 0)
(1.36602e-14 0 0)
(-2.5935e-15 0 0)
(2.23826e-15 0 0)
(1.41575e-14 0 0)
(1.9682e-14 0 0)
(-3.66994e-14 0 0)
(5.72874e-14 0 0)
(-1.23634e-14 0 0)
(-1.42073e-16 0 0)
(3.61665e-14 0 0)
(2.84286e-16 0 0)
(4.85122e-14 0 0)
(-3.64862e-14 0 0)
(6.41263e-14 0 0)
(-1.42463e-14 0 0)
(4.9205e-14 0 0)
(-2.2026e-15 0 0)
(7.50687e-14 0 0)
(1.95409e-15 0 0)
(2.23821e-14 0 0)
(1.91847e-14 0 0)
(3.97904e-14 0 0)
(3.65752e-14 0 0)
(1.7959e-14 0 0)
(5.12834e-14 0 0)
(2.92743e-14 0 0)
(2.57216e-14 0 0)
(-3.95949e-14 0 0)
(2.77999e-14 0 0)
(7.99367e-15 0 0)
(5.63282e-14 0 0)
(2.9079e-14 0 0)
(4.47819e-14 0 0)
(8.39151e-14 0 0)
(6.15507e-14 0 0)
(6.19771e-14 0 0)
(6.84607e-14 0 0)
(3.19212e-14 0 0)
(7.68629e-14 0 0)
(6.0556e-14 0 0)
(7.84617e-14 0 0)
(1.08127e-13 0 0)
(1.13314e-13 0 0)
(1.36335e-13 0 0)
(1.04681e-13 0 0)
(6.4695e-14 0 0)
(9.8943e-14 0 0)
(1.21149e-14 0 0)
(6.72705e-14 0 0)
(-5.25789e-15 0 0)
(3.5687e-14 0 0)
(-2.32708e-15 0 0)
(-4.68601e-14 0 0)
(2.84215e-14 0 0)
(-6.40553e-14 0 0)
(-3.13172e-14 0 0)
(-3.41416e-14 0 0)
(1.72301e-15 0 0)
(-3.45502e-14 0 0)
(-4.58654e-14 0 0)
(-3.07488e-14 0 0)
(-7.44293e-14 0 0)
(-6.02186e-14 0 0)
(-1.02993e-13 0 0)
(-7.37011e-14 0 0)
(-1.13722e-13 0 0)
(-1.40297e-13 0 0)
(-8.45369e-14 0 0)
(-1.0834e-13 0 0)
(-9.33297e-14 0 0)
(-4.89209e-14 0 0)
(-4.35208e-14 0 0)
(-3.00219e-15 0 0)
(-7.24752e-14 0 0)
(1.20779e-15 0 0)
(-5.67368e-14 0 0)
(-4.91163e-14 0 0)
(-9.33652e-14 0 0)
(-8.23519e-14 0 0)
(-9.96891e-14 0 0)
(-9.83036e-14 0 0)
(-1.20188e-13 0 0)
(-1.4543e-13 0 0)
(-1.15819e-13 0 0)
(-1.79359e-13 0 0)
(-2.10338e-13 0 0)
(-1.71188e-13 0 0)
(-2.06342e-13 0 0)
(-1.7284e-13 0 0)
(-1.74349e-13 0 0)
(-1.26743e-13 0 0)
(-1.55644e-13 0 0)
(-1.37152e-13 0 0)
(-7.51222e-14 0 0)
(-4.61142e-14 0 0)
(-3.67173e-14 0 0)
(-2.93454e-14 0 0)
(7.40742e-15 0 0)
(4.41069e-14 0 0)
(4.44623e-14 0 0)
(5.81935e-14 0 0)
(5.17453e-14 0 0)
(6.53166e-14 0 0)
(9.02211e-14 0 0)
(5.58132e-14 0 0)
(9.50705e-14 0 0)
(-3.23286e-15 0 0)
(7.44115e-14 0 0)
(-2.6219e-14 0 0)
(1.20437e-14 0 0)
(6.57236e-16 0 0)
(3.69304e-14 0 0)
(7.60287e-15 0 0)
(3.98437e-14 0 0)
(6.01119e-14 0 0)
(9.05408e-14 0 0)
(7.25998e-14 0 0)
(8.66862e-14 0 0)
(9.31522e-14 0 0)
(3.76766e-14 0 0)
(8.41282e-14 0 0)
(3.71792e-14 0 0)
(6.69863e-14 0 0)
(4.71445e-14 0 0)
(3.37152e-14 0 0)
(2.01972e-14 0 0)
(8.88158e-16 0 0)
(-2.56328e-14 0 0)
(-2.01262e-14 0 0)
(-4.32365e-14 0 0)
(-3.96838e-14 0 0)
(-2.89013e-14 0 0)
(-3.24718e-14 0 0)
(-1.80834e-14 0 0)
(-4.21174e-14 0 0)
(-6.09824e-14 0 0)
(-8.91909e-14 0 0)
(-1.10649e-13 0 0)
(-6.9349e-14 0 0)
(-8.63842e-14 0 0)
(-4.23306e-14 0 0)
(-6.16928e-14 0 0)
(-4.3574e-14 0 0)
(-6.06626e-14 0 0)
(-5.86908e-14 0 0)
(-5.15144e-14 0 0)
(-1.01661e-13 0 0)
(-6.30785e-14 0 0)
(-1.07523e-13 0 0)
(-1.11839e-13 0 0)
(-9.92273e-14 0 0)
(-1.54614e-13 0 0)
(-9.51418e-14 0 0)
(-1.44311e-13 0 0)
(-9.83215e-14 0 0)
(-1.66924e-13 0 0)
(-1.43228e-13 0 0)
(-1.44666e-13 0 0)
(-1.08606e-13 0 0)
(-1.23297e-13 0 0)
(-1.62945e-13 0 0)
(-1.0159e-13 0 0)
(-1.54117e-13 0 0)
(-7.83908e-14 0 0)
(-1.83551e-13 0 0)
(-6.42333e-14 0 0)
(-1.18945e-13 0 0)
(-7.51932e-14 0 0)
(-9.22283e-14 0 0)
(-3.21877e-14 0 0)
(-6.70575e-14 0 0)
(-6.65245e-14 0 0)
(-6.14797e-14 0 0)
(-7.74669e-14 0 0)
(-8.15881e-14 0 0)
(-9.00257e-14 0 0)
(-3.56338e-14 0 0)
(-4.24195e-14 0 0)
(-7.35589e-14 0 0)
(-1.6378e-14 0 0)
(-4.81038e-14 0 0)
(-6.39491e-15 0 0)
(-2.74269e-14 0 0)
(4.36094e-14 0 0)
(-6.37703e-15 0 0)
(-2.52241e-15 0 0)
(1.18661e-14 0 0)
(3.77475e-14 0 0)
(3.66285e-14 0 0)
(4.43556e-14 0 0)
(9.26903e-14 0 0)
(7.99006e-14 0 0)
(1.34861e-13 0 0)
(8.58869e-14 0 0)
(1.08038e-13 0 0)
(8.68107e-14 0 0)
(1.22462e-13 0 0)
(1.12639e-13 0 0)
(8.67928e-14 0 0)
(9.01857e-14 0 0)
(1.01608e-13 0 0)
(3.39108e-14 0 0)
(1.32694e-13 0 0)
(1.00275e-13 0 0)
(7.35946e-14 0 0)
(1.30971e-13 0 0)
(9.51772e-14 0 0)
(8.92264e-14 0 0)
(7.41984e-14 0 0)
(3.19568e-14 0 0)
(9.59054e-14 0 0)
(6.39489e-14 0 0)
(7.34523e-14 0 0)
(2.80665e-14 0 0)
(2.36433e-14 0 0)
(5.13364e-15 0 0)
(-2.80308e-14 0 0)
(2.54906e-14 0 0)
(2.13154e-16 0 0)
(-5.16741e-14 0 0)
(3.79607e-14 0 0)
(-3.08198e-14 0 0)
(-1.8634e-14 0 0)
(-7.89946e-14 0 0)
(-6.17817e-14 0 0)
(-7.11786e-14 0 0)
(-4.49952e-14 0 0)
(-1.00328e-13 0 0)
(-4.65407e-14 0 0)
(-7.53708e-14 0 0)
(-9.19264e-14 0 0)
(-4.51906e-14 0 0)
(-6.57074e-14 0 0)
(-2.18493e-14 0 0)
(-6.02717e-14 0 0)
(-4.97396e-15 0 0)
(-9.89606e-14 0 0)
(6.94534e-15 0 0)
(-8.33998e-14 0 0)
(-3.40706e-14 0 0)
(-7.35945e-14 0 0)
(-8.99013e-14 0 0)
(-4.84235e-14 0 0)
(-7.02726e-14 0 0)
(-3.0358e-14 0 0)
(-6.47482e-14 0 0)
(-4.88143e-14 0 0)
(-6.48725e-14 0 0)
(-1.42997e-14 0 0)
(-3.471e-14 0 0)
(-2.87592e-14 0 0)
(3.99678e-15 0 0)
(1.18127e-14 0 0)
(-1.65733e-14 0 0)
(8.21386e-14 0 0)
(1.89538e-14 0 0)
(7.88525e-14 0 0)
(8.22454e-14 0 0)
(1.0294e-13 0 0)
(9.10738e-14 0 0)
(3.99149e-14 0 0)
(1.69375e-13 0 0)
(1.06066e-13 0 0)
(1.5115e-13 0 0)
(1.14753e-13 0 0)
(1.44809e-13 0 0)
(1.27276e-13 0 0)
(1.52323e-13 0 0)
(1.46532e-13 0 0)
(1.46567e-13 0 0)
(1.15943e-13 0 0)
(1.39249e-13 0 0)
(1.55538e-13 0 0)
(1.09122e-13 0 0)
(1.89324e-13 0 0)
(1.51488e-13 0 0)
(1.35962e-13 0 0)
(1.75753e-13 0 0)
(1.66924e-13 0 0)
(1.99041e-13 0 0)
(1.81171e-13 0 0)
(1.28662e-13 0 0)
(2.01972e-13 0 0)
(1.14735e-13 0 0)
(1.70335e-13 0 0)
(1.18181e-13 0 0)
(1.2232e-13 0 0)
(1.11431e-13 0 0)
(8.38619e-14 0 0)
(7.79998e-14 0 0)
(5.88685e-14 0 0)
(1.07363e-13 0 0)
(1.04201e-13 0 0)
(1.26299e-13 0 0)
(9.51594e-14 0 0)
(1.13403e-13 0 0)
(1.2232e-13 0 0)
(1.28697e-13 0 0)
(1.02993e-13 0 0)
(1.62767e-13 0 0)
(1.25198e-13 0 0)
(1.60263e-13 0 0)
(1.02425e-13 0 0)
(9.11272e-14 0 0)
(1.18376e-13 0 0)
(7.59393e-14 0 0)
(7.83907e-14 0 0)
(8.05045e-14 0 0)
(8.06644e-14 0 0)
(3.64864e-14 0 0)
(1.16049e-13 0 0)
(2.12631e-14 0 0)
(5.83887e-14 0 0)
(-7.99358e-15 0 0)
(-3.52073e-14 0 0)
(-2.89546e-15 0 0)
(3.97898e-15 0 0)
(-1.34114e-14 0 0)
(1.95388e-15 0 0)
(-1.09601e-14 0 0)
(-6.22257e-14 0 0)
(-1.04451e-14 0 0)
(-1.00222e-13 0 0)
(-3.36088e-14 0 0)
(-1.33582e-13 0 0)
(-7.00774e-14 0 0)
(-1.16316e-13 0 0)
(-9.57635e-14 0 0)
(-1.10916e-13 0 0)
(-7.9794e-14 0 0)
(-9.24238e-14 0 0)
(-3.93286e-14 0 0)
(-6.29009e-14 0 0)
(-1.0802e-13 0 0)
(-6.09825e-14 0 0)
(-1.2708e-13 0 0)
(-7.59748e-14 0 0)
(-9.72555e-14 0 0)
(-8.75212e-14 0 0)
(-1.40119e-13 0 0)
(-1.40972e-13 0 0)
(-1.06795e-13 0 0)
(-1.29479e-13 0 0)
(-1.68043e-13 0 0)
(-1.32161e-13 0 0)
(-1.84723e-13 0 0)
(-1.6481e-13 0 0)
(-1.55538e-13 0 0)
(-1.417e-13 0 0)
(-1.82982e-13 0 0)
(-1.53655e-13 0 0)
(-1.66835e-13 0 0)
(-8.07711e-14 0 0)
(-9.07007e-14 0 0)
(-6.83543e-14 0 0)
(-9.9245e-14 0 0)
(-3.84582e-14 0 0)
(-1.24949e-13 0 0)
(-4.81394e-14 0 0)
(-8.67039e-14 0 0)
(-9.57634e-14 0 0)
(-8.01493e-14 0 0)
(-1.58895e-13 0 0)
(-5.62396e-14 0 0)
(-1.52198e-13 0 0)
(-7.94921e-14 0 0)
(-1.34221e-13 0 0)
(-9.93694e-14 0 0)
(-1.0381e-13 0 0)
(-9.6474e-14 0 0)
(-1.41291e-13 0 0)
(-6.47306e-14 0 0)
(-1.16724e-13 0 0)
(-8.02558e-14 0 0)
(-9.4662e-14 0 0)
(-4.71446e-14 0 0)
(-4.8015e-14 0 0)
(-7.41629e-14 0 0)
(-7.6792e-14 0 0)
(-1.15872e-13 0 0)
(-5.25448e-14 0 0)
(-9.11804e-14 0 0)
(-9.6989e-14 0 0)
(-7.2582e-14 0 0)
(-1.08518e-13 0 0)
(-9.05587e-14 0 0)
(-7.85149e-14 0 0)
(-1.04823e-13 0 0)
(-8.26717e-14 0 0)
(-1.20206e-13 0 0)
(-9.73266e-14 0 0)
(-7.53353e-14 0 0)
(-1.31877e-13 0 0)
(-7.12675e-14 0 0)
(-8.09486e-14 0 0)
(-1.3193e-13 0 0)
(-1.36959e-14 0 0)
(-7.26707e-14 0 0)
(-5.21361e-14 0 0)
(-1.18714e-13 0 0)
(-1.81189e-14 0 0)
(-7.62057e-14 0 0)
(-4.82458e-14 0 0)
(-1.40333e-14 0 0)
(5.18694e-15 0 0)
(1.13864e-14 0 0)
(-4.69845e-14 0 0)
(2.08542e-14 0 0)
(-4.12824e-14 0 0)
(-3.29336e-14 0 0)
(-1.93632e-15 0 0)
(-3.17968e-14 0 0)
(-7.33813e-14 0 0)
(-7.97229e-14 0 0)
(-1.12497e-13 0 0)
(-8.49987e-14 0 0)
(-1.35483e-13 0 0)
(-6.2066e-14 0 0)
(-1.03224e-13 0 0)
(-8.16413e-14 0 0)
(-5.28112e-14 0 0)
(-6.10711e-14 0 0)
(-4.22241e-14 0 0)
(-7.0468e-14 0 0)
(-1.88295e-14 0 0)
(-3.62377e-14 0 0)
(-5.56532e-14 0 0)
(-4.32543e-14 0 0)
(-5.35216e-14 0 0)
(-3.90807e-15 0 0)
(-1.49037e-14 0 0)
(-7.29016e-14 0 0)
(-2.14585e-14 0 0)
(-7.75379e-14 0 0)
(-9.74687e-14 0 0)
(-9.43246e-14 0 0)
(-1.46443e-13 0 0)
(-8.80542e-14 0 0)
(-1.51665e-13 0 0)
(-1.15907e-13 0 0)
(-1.64508e-13 0 0)
(-1.21272e-13 0 0)
(-1.99272e-13 0 0)
(-1.76001e-13 0 0)
(-1.63922e-13 0 0)
(-1.12621e-13 0 0)
(-1.57314e-13 0 0)
(-1.09921e-13 0 0)
(-1.74669e-13 0 0)
(-1.13172e-13 0 0)
(-1.36442e-13 0 0)
(-1.67102e-13 0 0)
(-9.7753e-14 0 0)
(-1.61933e-13 0 0)
(-7.23689e-14 0 0)
(-9.9245e-14 0 0)
(-6.19593e-14 0 0)
(-3.2756e-14 0 0)
(-4.08385e-14 0 0)
(-8.94217e-14 0 0)
(-2.24354e-14 0 0)
(-3.35199e-14 0 0)
(-6.58672e-14 0 0)
(-4.61321e-14 0 0)
(-6.81765e-14 0 0)
(-6.90115e-14 0 0)
(-5.06972e-14 0 0)
(-3.38041e-14 0 0)
(-3.96661e-14 0 0)
(-4.62031e-14 0 0)
(-6.27764e-14 0 0)
(-7.91012e-14 0 0)
(-7.87637e-14 0 0)
(-1.00417e-13 0 0)
(-9.65805e-14 0 0)
(-9.15711e-14 0 0)
(-5.98277e-14 0 0)
(-5.24203e-14 0 0)
(-5.12479e-14 0 0)
(-4.02167e-14 0 0)
(-3.73745e-14 0 0)
(-4.11227e-14 0 0)
(-4.13359e-14 0 0)
(-8.1961e-14 0 0)
(-4.06254e-14 0 0)
(-1.02709e-13 0 0)
(-3.77121e-14 0 0)
(-6.44284e-14 0 0)
(-2.19025e-14 0 0)
(-1.35891e-14 0 0)
(-1.51168e-14 0 0)
(-1.83319e-14 0 0)
(4.35385e-14 0 0)
(1.8634e-14 0 0)
(8.18723e-14 0 0)
(6.96687e-14 0 0)
(6.30784e-14 0 0)
(5.31486e-14 0 0)
(6.65245e-14 0 0)
(5.47829e-14 0 0)
(6.57607e-14 0 0)
(8.58869e-14 0 0)
(7.11253e-14 0 0)
(8.0238e-14 0 0)
(3.39108e-14 0 0)
(9.53192e-14 0 0)
(3.76944e-14 0 0)
(7.61701e-14 0 0)
(3.06423e-14 0 0)
(8.56203e-14 0 0)
(4.67538e-14 0 0)
(1.15445e-13 0 0)
(5.68968e-14 0 0)
(1.06439e-13 0 0)
(5.9579e-14 0 0)
(4.34142e-14 0 0)
(4.75352e-14 0 0)
(3.09265e-14 0 0)
(2.35011e-14 0 0)
(-3.24895e-14 0 0)
(2.57216e-14 0 0)
(-3.16191e-14 0 0)
(-7.38965e-15 0 0)
(-1.36785e-15 0 0)
(-1.07292e-14 0 0)
(-4.13358e-14 0 0)
(-1.37135e-14 0 0)
(-1.64491e-14 0 0)
(-3.304e-15 0 0)
(1.32161e-14 0 0)
(1.67156e-14 0 0)
(5.74828e-14 0 0)
(3.94352e-14 0 0)
(5.65947e-14 0 0)
(4.51728e-14 0 0)
(1.06333e-13 0 0)
(6.8674e-14 0 0)
(4.9738e-14 0 0)
(6.66666e-14 0 0)
(5.53691e-14 0 0)
(7.15516e-14 0 0)
(5.02887e-14 0 0)
(3.77832e-14 0 0)
(9.87476e-14 0 0)
(8.09131e-14 0 0)
(9.25482e-14 0 0)
(9.25837e-14 0 0)
(1.21698e-13 0 0)
(8.64908e-14 0 0)
(6.1533e-14 0 0)
(5.41789e-14 0 0)
(8.31157e-14 0 0)
(6.24212e-14 0 0)
(7.90834e-14 0 0)
(7.43761e-14 0 0)
(5.68079e-14 0 0)
(8.33467e-14 0 0)
(8.96704e-14 0 0)
(9.05764e-14 0 0)
(6.83187e-14 0 0)
(6.22079e-14 0 0)
(3.09797e-14 0 0)
(2.93099e-14 0 0)
(-9.68105e-15 0 0)
(3.55981e-14 0 0)
(3.14415e-15 0 0)
(4.70734e-14 0 0)
(-8.73962e-15 0 0)
(4.19397e-14 0 0)
(-1.13509e-14 0 0)
(1.03384e-14 0 0)
(-9.59267e-16 0 0)
(1.19193e-14 0 0)
(-1.66965e-15 0 0)
(6.78035e-14 0 0)
(5.28289e-14 0 0)
(3.27738e-14 0 0)
(5.56177e-14 0 0)
(3.50475e-14 0 0)
(2.63079e-14 0 0)
(4.76063e-14 0 0)
(5.04663e-14 0 0)
(1.30741e-14 0 0)
(5.37703e-14 0 0)
(1.81189e-15 0 0)
(1.81544e-14 0 0)
(3.10864e-15 0 0)
(2.53841e-14 0 0)
(6.55474e-15 0 0)
(-8.77515e-15 0 0)
(1.66977e-14 0 0)
(1.05871e-14 0 0)
(3.41237e-14 0 0)
(-4.73753e-14 0 0)
(9.82323e-14 0 0)
(-2.09432e-14 0 0)
(-1.93615e-15 0 0)
(-9.11268e-15 0 0)
(3.73034e-14 0 0)
(1.40687e-14 0 0)
(3.19212e-14 0 0)
(4.36096e-14 0 0)
(6.44462e-14 0 0)
(3.37153e-14 0 0)
(6.22791e-14 0 0)
(4.09984e-14 0 0)
(1.06919e-13 0 0)
(9.76464e-14 0 0)
(7.75202e-14 0 0)
(1.16618e-13 0 0)
(2.67876e-14 0 0)
(1.05817e-13 0 0)
(1.16531e-14 0 0)
(1.64597e-13 0 0)
(6.57076e-14 0 0)
(1.3916e-13 0 0)
(7.514e-14 0 0)
(1.49463e-13 0 0)
(1.16245e-13 0 0)
(1.80282e-13 0 0)
(1.67173e-13 0 0)
(1.40847e-13 0 0)
(1.51452e-13 0 0)
(1.97637e-13 0 0)
(1.81597e-13 0 0)
(1.50529e-13 0 0)
(1.54934e-13 0 0)
(1.77955e-13 0 0)
(1.50422e-13 0 0)
(1.67102e-13 0 0)
(1.54312e-13 0 0)
(1.07239e-13 0 0)
(2.04263e-13 0 0)
(8.05758e-14 0 0)
(2.17017e-13 0 0)
(1.14522e-13 0 0)
(1.93729e-13 0 0)
(1.50795e-13 0 0)
(2.41194e-13 0 0)
(1.82734e-13 0 0)
(1.64793e-13 0 0)
(1.83906e-13 0 0)
(1.81935e-13 0 0)
(1.66231e-13 0 0)
(1.55822e-13 0 0)
(1.30846e-13 0 0)
(1.85611e-13 0 0)
(1.33209e-13 0 0)
(1.41505e-13 0 0)
(1.12586e-13 0 0)
(1.5044e-13 0 0)
(1.11271e-13 0 0)
(8.19078e-14 0 0)
(4.72334e-14 0 0)
(3.99147e-14 0 0)
(1.64135e-14 0 0)
(-1.9842e-14 0 0)
(-2.91678e-14 0 0)
(-7.40385e-14 0 0)
(-4.46221e-14 0 0)
(-6.80167e-14 0 0)
(-7.5282e-14 0 0)
(-1.44649e-13 0 0)
(-9.99202e-14 0 0)
(-1.6735e-13 0 0)
(-5.9668e-14 0 0)
(-1.3717e-13 0 0)
(-3.9915e-14 0 0)
(-1.41025e-13 0 0)
(-9.31344e-14 0 0)
(-1.19282e-13 0 0)
(-9.35963e-14 0 0)
(-1.08642e-13 0 0)
(-1.14024e-13 0 0)
(-6.98286e-14 0 0)
(-7.05747e-14 0 0)
(-9.80016e-14 0 0)
(-6.84431e-14 0 0)
(-5.08927e-14 0 0)
(-8.90132e-14 0 0)
(-9.04343e-14 0 0)
(-6.78746e-14 0 0)
(-6.46061e-14 0 0)
(-1.5504e-13 0 0)
(-6.70221e-14 0 0)
(-1.2621e-13 0 0)
(-4.82815e-14 0 0)
(-1.52145e-13 0 0)
(-1.00453e-13 0 0)
(-1.25304e-13 0 0)
(-1.28004e-13 0 0)
(-9.8872e-14 0 0)
(-8.80541e-14 0 0)
(-3.65575e-14 0 0)
(-1.08269e-13 0 0)
(2.13e-16 0 0)
(-6.92955e-14 0 0)
(2.65387e-14 0 0)
(-8.15351e-15 0 0)
(-3.26493e-14 0 0)
(-1.77643e-15 0 0)
(-4.61825e-16 0 0)
(1.06048e-14 0 0)
(-1.4122e-14 0 0)
(1.21503e-14 0 0)
(-1.71419e-14 0 0)
(-4.90273e-15 0 0)
(9.13045e-15 0 0)
(2.61123e-15 0 0)
(-1.8332e-14 0 0)
(-1.26832e-14 0 0)
(2.91319e-15 0 0)
(-3.38217e-14 0 0)
(3.29335e-14 0 0)
(-2.91323e-14 0 0)
(-3.42481e-14 0 0)
(6.9633e-15 0 0)
(2.95408e-14 0 0)
(4.0874e-14 0 0)
(-4.3875e-15 0 0)
(4.88675e-14 0 0)
(8.08245e-15 0 0)
(-2.58104e-14 0 0)
(7.03969e-14 0 0)
(1.58629e-14 0 0)
(6.17994e-14 0 0)
(1.03035e-15 0 0)
(1.55075e-14 0 0)
(-1.51878e-14 0 0)
(3.19722e-16 0 0)
(-2.03038e-14 0 0)
(-2.67875e-14 0 0)
(-5.68458e-16 0 0)
(-2.31636e-14 0 0)
(-6.59036e-15 0 0)
(-2.23465e-14 0 0)
(-1.44595e-14 0 0)
(-2.37144e-14 0 0)
(-2.43894e-14 0 0)
(-6.33271e-14 0 0)
(-1.7142e-14 0 0)
(-1.06279e-13 0 0)
(-2.50481e-15 0 0)
(-8.08242e-14 0 0)
(-8.50342e-14 0 0)
(-7.33814e-14 0 0)
(-1.06315e-13 0 0)
(-1.18749e-13 0 0)
(-1.23421e-13 0 0)
(-1.33511e-13 0 0)
(-1.44844e-13 0 0)
(-1.56177e-13 0 0)
(-9.59056e-14 0 0)
(-1.04219e-13 0 0)
(-8.1588e-14 0 0)
(-6.53167e-14 0 0)
(-6.28297e-14 0 0)
(-5.13368e-14 0 0)
(-8.29558e-14 0 0)
(-6.49436e-14 0 0)
(-8.39151e-14 0 0)
(-7.74136e-14 0 0)
(-4.94538e-14 0 0)
(-7.18359e-14 0 0)
(-4.69847e-14 0 0)
(-8.77875e-14 0 0)
(-6.68266e-14 0 0)
(-8.80185e-14 0 0)
(-1.04237e-13 0 0)
(-8.76987e-14 0 0)
(-5.46053e-14 0 0)
(-6.02362e-14 0 0)
(-1.21859e-14 0 0)
(-4.26325e-14 0 0)
(1.34292e-14 0 0)
(-4.37695e-14 0 0)
(-9.59053e-14 0 0)
(-1.27722e-14 0 0)
(-8.15169e-14 0 0)
(4.03219e-15 0 0)
(-5.47473e-14 0 0)
(-3.58291e-14 0 0)
(-6.65423e-14 0 0)
(-6.27942e-14 0 0)
(-3.97727e-14 0 0)
(-4.2526e-14 0 0)
(-9.40047e-14 0 0)
(-4.42136e-14 0 0)
(-1.247e-13 0 0)
(-1.19442e-13 0 0)
(-1.11804e-13 0 0)
(-9.48931e-14 0 0)
(-1.28715e-13 0 0)
(-1.09086e-13 0 0)
(-1.66e-13 0 0)
(-1.5568e-13 0 0)
(-1.79998e-13 0 0)
(-2.10267e-13 0 0)
(-1.84368e-13 0 0)
(-2.07336e-13 0 0)
(-1.54028e-13 0 0)
(-1.55857e-13 0 0)
(-1.04984e-14 0 0)
(1.68523e-13 0 0)
(6.51976e-13 0 0)
(1.59064e-12 0 0)
(3.45445e-12 0 0)
(7.09871e-12 0 0)
(1.41478e-11 0 0)
(2.79651e-11 0 0)
(5.42128e-11 0 0)
(1.04325e-10 0 0)
(1.98718e-10 0 0)
(3.75659e-10 0 0)
(7.0451e-10 0 0)
(1.31085e-09 0 0)
(2.4198e-09 0 0)
(4.43163e-09 0 0)
(8.0515e-09 0 0)
(1.45102e-08 0 0)
(2.59369e-08 0 0)
(4.59801e-08 0 0)
(8.08323e-08 0 0)
(1.40902e-07 0 0)
(2.43514e-07 0 0)
(4.17213e-07 0 0)
(7.08552e-07 0 0)
(1.19266e-06 0 0)
(1.98952e-06 0 0)
(3.28864e-06 0 0)
(5.38606e-06 0 0)
(8.73902e-06 0 0)
(1.40457e-05 0 0)
(2.23594e-05 0 0)
(3.52507e-05 0 0)
(5.50317e-05 0 0)
(8.50646e-05 0 0)
(0.000130174 0 0)
(0.000197196 0 0)
(0.000295677 0 0)
(0.000438774 0 0)
(0.000644361 0 0)
(0.000936359 0 0)
(0.00134631 0 0)
(0.00191519 0 0)
(0.00269535 0 0)
(0.00375266 0 0)
(0.00516862 0 0)
(0.00704239 0 0)
(0.00949257 0 0)
(0.0126586 0 0)
(0.0167015 0 0)
(0.0218039 0 0)
(0.0281695 0 0)
(0.0360209 0 0)
(0.0455973 0 0)
(0.0571509 0 0)
(0.0709431 0 0)
(0.0872391 0 0)
(0.106304 0 0)
(0.128396 0 0)
(0.153765 0 0)
(0.182647 0 0)
(0.215258 0 0)
(0.251797 0 0)
(0.29244 0 0)
(0.337344 0 0)
(0.386642 0 0)
(0.440448 0 0)
(0.498859 0 0)
(0.561954 0 0)
(0.629798 0 0)
(0.702444 0 0)
(0.779938 0 0)
(0.862315 0 0)
(0.949612 0 0)
(1.0418 0 0)
(1.13907 0 0)
(1.24121 0 0)
(1.34839 0 0)
(1.46059 0 0)
(1.57783 0 0)
(1.70014 0 0)
(1.82752 0 0)
(1.96 0 0)
(2.09759 0 0)
(2.24032 0 0)
(2.3882 0 0)
(2.54125 0 0)
(2.69949 0 0)
(2.86295 0 0)
(3.03165 0 0)
(3.20561 0 0)
(3.38484 0 0)
(3.56939 0 0)
(3.75926 0 0)
(3.95449 0 0)
(4.1551 0 0)
(4.36112 0 0)
(4.57258 0 0)
(4.7895 0 0)
(5.01191 0 0)
(5.23985 0 0)
(5.47334 0 0)
(5.71242 0 0)
(5.95711 0 0)
(6.20746 0 0)
(6.46349 0 0)
(6.72523 0 0)
(6.99273 0 0)
(7.26601 0 0)
(7.54512 0 0)
(7.83008 0 0)
(8.12094 0 0)
(8.41773 0 0)
(8.72049 0 0)
(9.02926 0 0)
(9.34407 0 0)
(9.66496 0 0)
(9.99198 0 0)
(10.3251 0 0)
(10.6645 0 0)
(11.0101 0 0)
(11.362 0 0)
(11.7201 0 0)
(12.0847 0 0)
(12.4556 0 0)
(12.8329 0 0)
(13.2166 0 0)
(13.6069 0 0)
(14.0037 0 0)
(14.4071 0 0)
(14.8171 0 0)
(15.2338 0 0)
(15.6572 0 0)
(16.0873 0 0)
(16.5242 0 0)
(16.9679 0 0)
(17.4186 0 0)
(17.8761 0 0)
(18.3406 0 0)
(18.8121 0 0)
(19.2908 0 0)
(19.7764 0 0)
(20.2694 0 0)
(20.7693 0 0)
(21.277 0 0)
(21.791 0 0)
(22.3141 0 0)
(22.8416 0 0)
(23.3817 0 0)
(23.921 0 0)
(24.4807 0 0)
(25.0289 0 0)
(25.6122 0 0)
(26.1655 0 0)
(26.776 0 0)
(27.3323 0 0)
(27.9714 0 0)
(28.5304 0 0)
(29.1989 0 0)
(29.7599 0 0)
(30.459 0 0)
(31.0212 0 0)
(31.7522 0 0)
(32.3146 0 0)
(33.0791 0 0)
(33.6402 0 0)
(34.4401 0 0)
(34.9978 0 0)
(35.8346 0 0)
(36.3855 0 0)
(37.2601 0 0)
(37.7924 0 0)
(38.7027 0 0)
(39.1673 0 0)
(40.5988 0 0)
)
;

boundaryField
{
    sideLeft
    {
        type            symmetryPlane;
    }
    sideRight
    {
        type            calculated;
        value           uniform (40.5988 0 0);
    }
    topbottom
    {
        type            empty;
    }
    frontback
    {
        type            empty;
    }
}


// ************************************************************************* //
