/*--------------------------------*- C++ -*----------------------------------*\
| =========                 |                                                 |
| \\      /  F ield         | OpenFOAM: The Open Source CFD Toolbox           |
|  \\    /   O peration     | Version:  2.4.0                                 |
|   \\  /    A nd           | Web:      www.OpenFOAM.org                      |
|    \\/     M anipulation  |                                                 |
\*---------------------------------------------------------------------------*/
FoamFile
{
    version     2.0;
    format      ascii;
    class       volVectorField;
    location    "0.04";
    object      U.water;
}
// * * * * * * * * * * * * * * * * * * * * * * * * * * * * * * * * * * * * * //

dimensions      [0 1 -1 0 0 0 0];

internalField   nonuniform List<vector> 
1000
(
(-1.06581e-13 0 0)
(-8.52653e-14 0 0)
(-1.42108e-13 0 0)
(-3.55273e-14 0 0)
(-9.23702e-14 0 0)
(-1.98952e-13 0 0)
(-3.97904e-13 0 0)
(-1.63425e-13 0 0)
(-1.06581e-13 0 0)
(-2.84217e-14 0 0)
(-1.91847e-13 0 0)
(-9.23703e-14 0 0)
(9.23703e-14 0 0)
(6.39491e-14 0 0)
(5.11591e-13 0 0)
(3.2685e-13 0 0)
(3.4106e-13 0 0)
(1.42109e-13 0 0)
(2.91322e-13 0 0)
(7.816e-14 0 0)
(-7.81601e-14 0 0)
(-1.49214e-13 0 0)
(-6.3949e-14 0 0)
(-8.52651e-14 0 0)
(3.98118e-20 0 0)
(2.27374e-13 0 0)
(-1.77636e-13 0 0)
(-3.12639e-13 0 0)
(-5.8975e-13 0 0)
(-6.89227e-13 0 0)
(-8.24229e-13 0 0)
(-7.67386e-13 0 0)
(-5.61329e-13 0 0)
(-5.25801e-13 0 0)
(-3.2685e-13 0 0)
(-4.26325e-13 0 0)
(-1.35004e-13 0 0)
(-1.13687e-13 0 0)
(4.97378e-14 0 0)
(-4.97378e-14 0 0)
(7.81594e-14 0 0)
(5.18696e-13 0 0)
(7.60281e-13 0 0)
(5.89751e-13 0 0)
(6.53699e-13 0 0)
(3.55271e-13 0 0)
(2.13164e-14 0 0)
(2.13162e-14 0 0)
(1.35003e-13 0 0)
(1.49214e-13 0 0)
(5.68437e-14 0 0)
(-2.84219e-14 0 0)
(-3.90798e-13 0 0)
(-4.9738e-13 0 0)
(-5.11591e-13 0 0)
(-1.7053e-13 0 0)
(-9.94762e-14 0 0)
(-3.2685e-13 0 0)
(-1.27898e-13 0 0)
(-1.56319e-13 0 0)
(-2.4869e-13 0 0)
(-1.42109e-13 0 0)
(4.97381e-14 0 0)
(1.7053e-13 0 0)
(3.4106e-13 0 0)
(6.75016e-13 0 0)
(8.31335e-13 0 0)
(6.53699e-13 0 0)
(3.12639e-13 0 0)
(3.4106e-13 0 0)
(-9.23703e-14 0 0)
(-2.98428e-13 0 0)
(-3.90798e-13 0 0)
(-5.11591e-13 0 0)
(-7.38965e-13 0 0)
(-6.6791e-13 0 0)
(-5.04486e-13 0 0)
(-4.12115e-13 0 0)
(-2.70006e-13 0 0)
(7.81597e-14 0 0)
(2.06057e-13 0 0)
(1.13687e-13 0 0)
(2.13163e-14 0 0)
(-9.23706e-14 0 0)
(-1.20792e-13 0 0)
(-1.30596e-19 0 0)
(1.98952e-13 0 0)
(1.77636e-13 0 0)
(-1.35003e-13 0 0)
(-3.05533e-13 0 0)
(-1.13687e-13 0 0)
(-7.10542e-14 0 0)
(-2.34479e-13 0 0)
(-1.56319e-13 0 0)
(-1.06581e-13 0 0)
(5.68431e-14 0 0)
(1.13687e-13 0 0)
(-6.39491e-14 0 0)
(-1.20792e-13 0 0)
(7.81596e-14 0 0)
(-8.5265e-14 0 0)
(1.42108e-14 0 0)
(1.20792e-13 0 0)
(7.10542e-14 0 0)
(1.35003e-13 0 0)
(4.26327e-14 0 0)
(-9.94762e-14 0 0)
(-3.55271e-14 0 0)
(-2.34479e-13 0 0)
(-4.54747e-13 0 0)
(-7.17648e-13 0 0)
(-6.53699e-13 0 0)
(-6.11067e-13 0 0)
(-6.03961e-13 0 0)
(-4.47642e-13 0 0)
(-5.68433e-14 0 0)
(-1.35003e-13 0 0)
(-2.77112e-13 0 0)
(-3.19744e-13 0 0)
(-2.20268e-13 0 0)
(-2.27374e-13 0 0)
(-3.83693e-13 0 0)
(-9.23705e-14 0 0)
(-2.70006e-13 0 0)
(-3.2685e-13 0 0)
(-3.05533e-13 0 0)
(-1.91847e-13 0 0)
(-1.49214e-13 0 0)
(-1.63425e-13 0 0)
(-1.77635e-13 0 0)
(-1.91847e-13 0 0)
(-4.1922e-13 0 0)
(-1.56319e-13 0 0)
(7.10543e-14 0 0)
(3.19744e-13 0 0)
(7.10544e-14 0 0)
(1.35003e-13 0 0)
(2.27374e-13 0 0)
(2.91322e-13 0 0)
(3.97904e-13 0 0)
(2.62901e-13 0 0)
(5.25802e-13 0 0)
(5.89751e-13 0 0)
(5.54223e-13 0 0)
(4.9738e-13 0 0)
(1.49214e-13 0 0)
(6.39488e-14 0 0)
(2.27374e-13 0 0)
(1.84741e-13 0 0)
(-2.41585e-13 0 0)
(-6.32383e-13 0 0)
(-5.11591e-13 0 0)
(-3.83693e-13 0 0)
(-4.54747e-13 0 0)
(-4.47642e-13 0 0)
(-2.84217e-13 0 0)
(-9.94761e-14 0 0)
(-1.63425e-13 0 0)
(-1.27898e-13 0 0)
(-4.26325e-14 0 0)
(8.52653e-14 0 0)
(3.2685e-13 0 0)
(4.9738e-13 0 0)
(4.90274e-13 0 0)
(5.25802e-13 0 0)
(5.40012e-13 0 0)
(1.91847e-13 0 0)
(1.42109e-13 0 0)
(-1.63425e-13 0 0)
(-1.42108e-13 0 0)
(-3.55272e-13 0 0)
(-3.76588e-13 0 0)
(-4.1922e-13 0 0)
(-2.41585e-13 0 0)
(1.42111e-14 0 0)
(7.1054e-14 0 0)
(1.4211e-14 0 0)
(2.06057e-13 0 0)
(2.91323e-13 0 0)
(1.56319e-13 0 0)
(-5.68434e-14 0 0)
(-3.19744e-13 0 0)
(-4.90275e-13 0 0)
(-6.6791e-13 0 0)
(-5.11591e-13 0 0)
(-4.76063e-13 0 0)
(-5.47118e-13 0 0)
(-9.30811e-13 0 0)
(-6.03962e-13 0 0)
(-5.75539e-13 0 0)
(-3.12639e-13 0 0)
(-3.26849e-13 0 0)
(-2.27374e-13 0 0)
(2.62901e-13 0 0)
(2.27374e-13 0 0)
(-7.10544e-15 0 0)
(-7.81597e-14 0 0)
(1.13687e-13 0 0)
(3.2685e-13 0 0)
(2.62901e-13 0 0)
(-1.42109e-14 0 0)
(1.06582e-13 0 0)
(2.13163e-13 0 0)
(-9.94759e-14 0 0)
(7.81596e-14 0 0)
(1.84741e-13 0 0)
(3.19744e-13 0 0)
(1.91847e-13 0 0)
(1.91847e-13 0 0)
(-1.42109e-13 0 0)
(-2.13163e-13 0 0)
(-3.55271e-14 0 0)
(-6.39488e-14 0 0)
(1.49214e-13 0 0)
(-7.10527e-15 0 0)
(1.13687e-13 0 0)
(-2.84216e-14 0 0)
(-1.63425e-13 0 0)
(2.84218e-14 0 0)
(-8.28418e-20 0 0)
(4.26325e-14 0 0)
(-1.49214e-13 0 0)
(-2.13163e-13 0 0)
(-1.72386e-19 0 0)
(-1.7053e-13 0 0)
(-2.13166e-14 0 0)
(-2.13163e-13 0 0)
(-3.83693e-13 0 0)
(-2.84217e-13 0 0)
(-5.7554e-13 0 0)
(-2.13163e-13 0 0)
(2.13162e-14 0 0)
(1.5632e-13 0 0)
(4.40536e-13 0 0)
(2.34479e-13 0 0)
(5.68433e-14 0 0)
(1.06464e-19 0 0)
(-1.98952e-13 0 0)
(-2.13163e-13 0 0)
(4.97382e-14 0 0)
(4.97378e-14 0 0)
(-8.52652e-14 0 0)
(-2.41584e-13 0 0)
(-2.27374e-13 0 0)
(-3.62377e-13 0 0)
(-3.76588e-13 0 0)
(-2.77112e-13 0 0)
(4.9738e-14 0 0)
(-2.84217e-14 0 0)
(3.19744e-13 0 0)
(2.41585e-13 0 0)
(4.26324e-14 0 0)
(7.81597e-14 0 0)
(2.84218e-14 0 0)
(4.97378e-14 0 0)
(-1.13687e-13 0 0)
(1.91846e-13 0 0)
(3.62377e-13 0 0)
(5.75539e-13 0 0)
(2.77112e-13 0 0)
(1.56319e-13 0 0)
(1.35003e-13 0 0)
(1.13687e-13 0 0)
(4.9738e-14 0 0)
(1.35003e-13 0 0)
(9.94759e-14 0 0)
(-1.42108e-13 0 0)
(-4.26328e-14 0 0)
(-1.63425e-13 0 0)
(-5.68435e-14 0 0)
(-7.10528e-15 0 0)
(2.84217e-13 0 0)
(1.20792e-13 0 0)
(-8.52651e-14 0 0)
(2.84216e-14 0 0)
(-1.42109e-14 0 0)
(-9.94757e-14 0 0)
(-1.27898e-13 0 0)
(-2.20268e-13 0 0)
(1.63425e-13 0 0)
(3.55272e-14 0 0)
(-1.56319e-13 0 0)
(-9.94761e-14 0 0)
(-2.13162e-13 0 0)
(-2.27374e-13 0 0)
(-2.06057e-13 0 0)
(1.7053e-13 0 0)
(3.2685e-13 0 0)
(4.12115e-13 0 0)
(4.54747e-13 0 0)
(4.1922e-13 0 0)
(3.83693e-13 0 0)
(7.74492e-13 0 0)
(7.4607e-13 0 0)
(5.11591e-13 0 0)
(2.41584e-13 0 0)
(3.19745e-13 0 0)
(7.03437e-13 0 0)
(8.95284e-13 0 0)
(9.52127e-13 0 0)
(9.23706e-13 0 0)
(8.2423e-13 0 0)
(7.74491e-13 0 0)
(8.88178e-13 0 0)
(7.4607e-13 0 0)
(8.02913e-13 0 0)
(8.52652e-13 0 0)
(9.52127e-13 0 0)
(1.09424e-12 0 0)
(1.22924e-12 0 0)
(9.80549e-13 0 0)
(6.39489e-13 0 0)
(6.46594e-13 0 0)
(7.60281e-13 0 0)
(9.52127e-13 0 0)
(8.88179e-13 0 0)
(8.02913e-13 0 0)
(6.6791e-13 0 0)
(6.18172e-13 0 0)
(6.75016e-13 0 0)
(1.91847e-13 0 0)
(1.5632e-13 0 0)
(7.81595e-14 0 0)
(-2.13163e-13 0 0)
(-2.62901e-13 0 0)
(-3.69482e-13 0 0)
(-3.12639e-13 0 0)
(-3.05534e-13 0 0)
(-3.48166e-13 0 0)
(-6.75016e-13 0 0)
(-6.53699e-13 0 0)
(-3.55271e-13 0 0)
(-4.68958e-13 0 0)
(-5.96856e-13 0 0)
(-7.17648e-13 0 0)
(-7.88703e-13 0 0)
(-9.59233e-13 0 0)
(-7.4607e-13 0 0)
(-7.81597e-13 0 0)
(-9.37917e-13 0 0)
(-7.31859e-13 0 0)
(-9.23706e-13 0 0)
(-9.66338e-13 0 0)
(-9.87654e-13 0 0)
(-8.66862e-13 0 0)
(-7.95808e-13 0 0)
(-2.20269e-13 0 0)
(-3.12638e-13 0 0)
(-3.76588e-13 0 0)
(-4.9738e-13 0 0)
(-3.69482e-13 0 0)
(-2.27374e-13 0 0)
(-3.76588e-13 0 0)
(-1.7053e-13 0 0)
(-5.68436e-14 0 0)
(-3.55272e-14 0 0)
(-3.5527e-14 0 0)
(7.10541e-14 0 0)
(-5.68432e-14 0 0)
(-6.3949e-14 0 0)
(-1.20792e-13 0 0)
(-2.70006e-13 0 0)
(-3.33955e-13 0 0)
(-3.12639e-13 0 0)
(-7.81599e-14 0 0)
(-7.81597e-14 0 0)
(-3.19744e-13 0 0)
(-2.4869e-13 0 0)
(-3.48166e-13 0 0)
(-1.7053e-13 0 0)
(-2.13163e-13 0 0)
(-1.77636e-13 0 0)
(-1.35003e-13 0 0)
(-4.95713e-20 0 0)
(5.68436e-14 0 0)
(3.26849e-13 0 0)
(1.84741e-13 0 0)
(-2.20268e-13 0 0)
(-2.06057e-13 0 0)
(-1.35003e-13 0 0)
(-2.91322e-13 0 0)
(-2.98428e-13 0 0)
(-3.83693e-13 0 0)
(-2.84217e-13 0 0)
(-2.91323e-13 0 0)
(-3.05533e-13 0 0)
(-2.4869e-13 0 0)
(-7.1054e-14 0 0)
(-1.42111e-14 0 0)
(-1.13687e-13 0 0)
(1.56319e-13 0 0)
(9.23706e-14 0 0)
(3.62377e-13 0 0)
(4.40537e-13 0 0)
(6.46594e-13 0 0)
(5.47118e-13 0 0)
(3.55271e-13 0 0)
(2.84219e-14 0 0)
(2.77112e-13 0 0)
(1.77636e-13 0 0)
(-7.10541e-15 0 0)
(9.23705e-14 0 0)
(1.13687e-13 0 0)
(3.05533e-13 0 0)
(1.06581e-13 0 0)
(-3.55271e-14 0 0)
(-2.84218e-14 0 0)
(-1.77636e-13 0 0)
(-4.68958e-13 0 0)
(-6.53699e-13 0 0)
(-8.02913e-13 0 0)
(-6.89227e-13 0 0)
(-7.17648e-13 0 0)
(-9.02389e-13 0 0)
(-1.06581e-12 0 0)
(-1.19371e-12 0 0)
(-1.05871e-12 0 0)
(-1.10134e-12 0 0)
(-9.45022e-13 0 0)
(-7.17649e-13 0 0)
(-5.04485e-13 0 0)
(-2.41585e-13 0 0)
(-4.1922e-13 0 0)
(-1.63425e-13 0 0)
(-1.20792e-13 0 0)
(-4.26325e-14 0 0)
(-2.84217e-14 0 0)
(2.13162e-14 0 0)
(-1.35003e-13 0 0)
(-4.26325e-13 0 0)
(-3.33955e-13 0 0)
(-1.13687e-13 0 0)
(2.13164e-14 0 0)
(8.5265e-14 0 0)
(-1.13687e-13 0 0)
(-3.4106e-13 0 0)
(-3.83693e-13 0 0)
(-6.39488e-13 0 0)
(-8.17124e-13 0 0)
(-7.88702e-13 0 0)
(-5.40013e-13 0 0)
(-3.4106e-13 0 0)
(-2.70006e-13 0 0)
(-2.77112e-13 0 0)
(2.06057e-13 0 0)
(4.90274e-13 0 0)
(7.38965e-13 0 0)
(9.02389e-13 0 0)
(1.06581e-12 0 0)
(1.06581e-12 0 0)
(9.37916e-13 0 0)
(8.38441e-13 0 0)
(7.10543e-13 0 0)
(8.3844e-13 0 0)
(8.66862e-13 0 0)
(9.52127e-13 0 0)
(9.09495e-13 0 0)
(8.31335e-13 0 0)
(7.31859e-13 0 0)
(5.32907e-13 0 0)
(4.40536e-13 0 0)
(9.23708e-14 0 0)
(2.84217e-13 0 0)
(4.0501e-13 0 0)
(2.55795e-13 0 0)
(-5.68432e-14 0 0)
(-1.91847e-13 0 0)
(-5.25802e-13 0 0)
(-7.17648e-13 0 0)
(-7.81597e-13 0 0)
(-7.74492e-13 0 0)
(-1.02318e-12 0 0)
(-5.96856e-13 0 0)
(-3.19744e-13 0 0)
(-1.27897e-13 0 0)
(-9.94763e-14 0 0)
(2.13166e-14 0 0)
(5.40012e-13 0 0)
(5.68434e-13 0 0)
(6.46594e-13 0 0)
(5.8975e-13 0 0)
(5.47118e-13 0 0)
(3.62377e-13 0 0)
(2.27374e-13 0 0)
(3.12639e-13 0 0)
(2.41585e-13 0 0)
(-8.52652e-14 0 0)
(-9.23705e-14 0 0)
(5.68435e-14 0 0)
(2.34479e-13 0 0)
(2.34479e-13 0 0)
(2.34479e-13 0 0)
(-5.68435e-14 0 0)
(2.7291e-20 0 0)
(-2.20268e-13 0 0)
(-1.7053e-13 0 0)
(-4.97379e-14 0 0)
(-2.20268e-13 0 0)
(-7.10542e-14 0 0)
(-9.23706e-14 0 0)
(2.13163e-14 0 0)
(-9.9476e-14 0 0)
(-6.39489e-14 0 0)
(-9.23705e-14 0 0)
(-4.1922e-13 0 0)
(-3.48166e-13 0 0)
(-4.76064e-13 0 0)
(-5.47118e-13 0 0)
(-5.68434e-13 0 0)
(-3.12639e-13 0 0)
(-5.82645e-13 0 0)
(-5.89751e-13 0 0)
(-3.48166e-13 0 0)
(-3.62377e-13 0 0)
(-3.55271e-13 0 0)
(-1.84741e-13 0 0)
(-2.55795e-13 0 0)
(-7.81599e-14 0 0)
(1.77636e-13 0 0)
(3.55271e-14 0 0)
(-1.91846e-13 0 0)
(-5.25802e-13 0 0)
(-4.40537e-13 0 0)
(-3.83693e-13 0 0)
(-2.55795e-13 0 0)
(-1.63425e-13 0 0)
(-3.55272e-13 0 0)
(-4.97377e-14 0 0)
(2.62901e-13 0 0)
(4.26327e-14 0 0)
(-1.13687e-13 0 0)
(-3.69482e-13 0 0)
(-4.26326e-13 0 0)
(-5.82645e-13 0 0)
(-6.82121e-13 0 0)
(-8.81073e-13 0 0)
(-6.75016e-13 0 0)
(-4.9738e-13 0 0)
(-4.33431e-13 0 0)
(-4.40537e-13 0 0)
(-3.76588e-13 0 0)
(-4.26326e-13 0 0)
(-4.05009e-13 0 0)
(-2.98428e-13 0 0)
(-4.90274e-13 0 0)
(-5.68434e-13 0 0)
(-3.62377e-13 0 0)
(-7.10543e-14 0 0)
(3.55273e-14 0 0)
(4.26325e-14 0 0)
(1.56319e-13 0 0)
(1.77636e-13 0 0)
(1.63425e-13 0 0)
(5.32907e-13 0 0)
(6.46594e-13 0 0)
(5.25802e-13 0 0)
(5.25802e-13 0 0)
(3.90799e-13 0 0)
(2.20268e-13 0 0)
(3.05533e-13 0 0)
(4.61853e-13 0 0)
(5.8975e-13 0 0)
(4.9738e-13 0 0)
(3.69482e-13 0 0)
(2.13163e-13 0 0)
(2.55796e-13 0 0)
(5.82645e-13 0 0)
(7.10543e-13 0 0)
(5.96856e-13 0 0)
(4.83169e-13 0 0)
(7.17648e-13 0 0)
(5.40013e-13 0 0)
(6.39488e-13 0 0)
(5.61329e-13 0 0)
(4.26326e-13 0 0)
(2.20268e-13 0 0)
(1.35003e-13 0 0)
(3.48166e-13 0 0)
(3.62377e-13 0 0)
(4.05009e-13 0 0)
(4.68958e-13 0 0)
(5.61329e-13 0 0)
(3.76588e-13 0 0)
(1.49214e-13 0 0)
(-9.94759e-14 0 0)
(-5.68435e-14 0 0)
(2.41585e-13 0 0)
(3.90798e-13 0 0)
(3.19744e-13 0 0)
(3.12639e-13 0 0)
(2.27374e-13 0 0)
(5.04485e-13 0 0)
(4.1922e-13 0 0)
(5.7554e-13 0 0)
(4.68958e-13 0 0)
(6.32383e-13 0 0)
(6.96332e-13 0 0)
(6.25277e-13 0 0)
(4.26326e-13 0 0)
(2.77112e-13 0 0)
(1.77636e-13 0 0)
(-7.10538e-15 0 0)
(2.4869e-13 0 0)
(3.69482e-13 0 0)
(4.33431e-13 0 0)
(5.25802e-13 0 0)
(5.68434e-13 0 0)
(3.19744e-13 0 0)
(3.69482e-13 0 0)
(3.97904e-13 0 0)
(5.11591e-13 0 0)
(4.1922e-13 0 0)
(3.62377e-13 0 0)
(3.19744e-13 0 0)
(3.55271e-13 0 0)
(1.98952e-13 0 0)
(-1.63424e-13 0 0)
(2.13157e-14 0 0)
(-1.56319e-13 0 0)
(-2.13163e-14 0 0)
(-2.06057e-13 0 0)
(-1.91847e-13 0 0)
(-4.05009e-13 0 0)
(-2.06057e-13 0 0)
(-3.83693e-13 0 0)
(-3.48166e-13 0 0)
(-3.97904e-13 0 0)
(-4.12115e-13 0 0)
(-3.05533e-13 0 0)
(-1.20792e-13 0 0)
(9.23705e-14 0 0)
(1.27898e-13 0 0)
(4.33431e-13 0 0)
(1.20793e-13 0 0)
(3.12638e-13 0 0)
(3.90799e-13 0 0)
(5.82645e-13 0 0)
(2.62901e-13 0 0)
(9.94758e-14 0 0)
(-1.20792e-13 0 0)
(-7.10562e-15 0 0)
(-8.5265e-14 0 0)
(-1.91847e-13 0 0)
(-3.19744e-13 0 0)
(-2.41584e-13 0 0)
(-3.62377e-13 0 0)
(-3.12639e-13 0 0)
(-2.20268e-13 0 0)
(-2.84217e-13 0 0)
(-4.90274e-13 0 0)
(-6.75016e-13 0 0)
(-5.68434e-13 0 0)
(-4.05009e-13 0 0)
(-4.33431e-13 0 0)
(-4.40536e-13 0 0)
(-3.19745e-13 0 0)
(-3.69482e-13 0 0)
(-1.42109e-13 0 0)
(-7.81594e-14 0 0)
(-7.10565e-15 0 0)
(-4.90274e-13 0 0)
(-4.97383e-14 0 0)
(3.55272e-14 0 0)
(1.63425e-13 0 0)
(7.81596e-14 0 0)
(2.27374e-13 0 0)
(3.41061e-13 0 0)
(3.33955e-13 0 0)
(-2.84216e-14 0 0)
(-7.81599e-14 0 0)
(-1.49214e-13 0 0)
(-1.56319e-13 0 0)
(-1.63425e-13 0 0)
(-2.13163e-13 0 0)
(-1.06581e-13 0 0)
(-2.13162e-14 0 0)
(4.33431e-13 0 0)
(5.18696e-13 0 0)
(4.68958e-13 0 0)
(3.97904e-13 0 0)
(3.19744e-13 0 0)
(1.06582e-13 0 0)
(-9.94761e-14 0 0)
(-2.84217e-13 0 0)
(-2.34479e-13 0 0)
(-4.83169e-13 0 0)
(-5.82645e-13 0 0)
(-6.25277e-13 0 0)
(-4.12115e-13 0 0)
(-2.27373e-13 0 0)
(1.27897e-13 0 0)
(-2.13163e-13 0 0)
(-2.13164e-14 0 0)
(7.81598e-14 0 0)
(8.52651e-14 0 0)
(3.12639e-13 0 0)
(1.63425e-13 0 0)
(2.84216e-14 0 0)
(2.84217e-14 0 0)
(9.94761e-14 0 0)
(6.39488e-14 0 0)
(1.77636e-13 0 0)
(5.68435e-14 0 0)
(-1.42108e-13 0 0)
(-8.52652e-14 0 0)
(2.13161e-14 0 0)
(1.27898e-13 0 0)
(5.1159e-13 0 0)
(4.1922e-13 0 0)
(6.53699e-13 0 0)
(4.47642e-13 0 0)
(7.03437e-13 0 0)
(1.08003e-12 0 0)
(9.02389e-13 0 0)
(8.52651e-13 0 0)
(5.11591e-13 0 0)
(5.54223e-13 0 0)
(3.97904e-13 0 0)
(2.77111e-13 0 0)
(1.5632e-13 0 0)
(2.06057e-13 0 0)
(1.91847e-13 0 0)
(3.19744e-13 0 0)
(1.77636e-13 0 0)
(2.27374e-13 0 0)
(3.2685e-13 0 0)
(1.06582e-13 0 0)
(3.5527e-14 0 0)
(-1.42108e-14 0 0)
(2.13163e-13 0 0)
(2.98428e-13 0 0)
(2.91323e-13 0 0)
(5.68434e-14 0 0)
(-2.34479e-13 0 0)
(1.7053e-13 0 0)
(5.68437e-14 0 0)
(-1.84741e-13 0 0)
(-1.84741e-13 0 0)
(-3.90798e-13 0 0)
(-4.76064e-13 0 0)
(-4.83169e-13 0 0)
(-3.19744e-13 0 0)
(-4.33431e-13 0 0)
(-2.20268e-13 0 0)
(-2.98428e-13 0 0)
(-3.12639e-13 0 0)
(-1.70531e-13 0 0)
(-3.4106e-13 0 0)
(-1.84741e-13 0 0)
(-4.83169e-13 0 0)
(-3.2685e-13 0 0)
(-1.06581e-13 0 0)
(-9.23706e-14 0 0)
(-7.10542e-14 0 0)
(-1.77636e-13 0 0)
(-1.91847e-13 0 0)
(-1.56319e-13 0 0)
(-1.84741e-13 0 0)
(-2.84217e-14 0 0)
(-1.06581e-13 0 0)
(-1.98952e-13 0 0)
(-1.06581e-13 0 0)
(-1.56319e-13 0 0)
(-5.68437e-14 0 0)
(-2.70006e-13 0 0)
(-3.19745e-13 0 0)
(-3.76587e-13 0 0)
(-2.62901e-13 0 0)
(7.10541e-14 0 0)
(1.77636e-13 0 0)
(2.13163e-13 0 0)
(1.06581e-13 0 0)
(8.52651e-14 0 0)
(2.62901e-13 0 0)
(-1.42107e-14 0 0)
(-7.10544e-14 0 0)
(-1.20792e-13 0 0)
(-1.63425e-13 0 0)
(-2.13163e-13 0 0)
(-9.9476e-14 0 0)
(-9.94761e-14 0 0)
(-4.26326e-13 0 0)
(-3.41061e-13 0 0)
(-2.27374e-13 0 0)
(-1.42108e-14 0 0)
(7.10542e-14 0 0)
(2.20268e-13 0 0)
(-1.4541e-19 0 0)
(-1.84741e-13 0 0)
(-9.94761e-14 0 0)
(-3.19744e-13 0 0)
(-4.12115e-13 0 0)
(-2.06057e-13 0 0)
(-2.70006e-13 0 0)
(-4.76064e-13 0 0)
(-2.84217e-13 0 0)
(-4.47642e-13 0 0)
(-4.0501e-13 0 0)
(-3.55271e-13 0 0)
(-4.26325e-13 0 0)
(-5.54224e-13 0 0)
(-5.32907e-13 0 0)
(-4.19221e-13 0 0)
(-3.90798e-13 0 0)
(-1.84741e-13 0 0)
(-3.83693e-13 0 0)
(-3.12639e-13 0 0)
(-2.4869e-13 0 0)
(-4.47642e-13 0 0)
(-5.54223e-13 0 0)
(-7.10543e-13 0 0)
(-1.16529e-12 0 0)
(-1.09424e-12 0 0)
(-1.02318e-12 0 0)
(-8.81073e-13 0 0)
(-8.59757e-13 0 0)
(-1.10845e-12 0 0)
(-1.01608e-12 0 0)
(-9.73444e-13 0 0)
(-4.90275e-13 0 0)
(1.35003e-13 0 0)
(9.23705e-13 0 0)
(2.28084e-12 0 0)
(5.08038e-12 0 0)
(9.85523e-12 0 0)
(1.97389e-11 0 0)
(4.04654e-11 0 0)
(8.19611e-11 0 0)
(1.63681e-10 0 0)
(3.23098e-10 0 0)
(6.32248e-10 0 0)
(1.22639e-09 0 0)
(2.35966e-09 0 0)
(4.50447e-09 0 0)
(8.53272e-09 0 0)
(1.60381e-08 0 0)
(2.99103e-08 0 0)
(5.53421e-08 0 0)
(1.01583e-07 0 0)
(1.84955e-07 0 0)
(3.34005e-07 0 0)
(5.98177e-07 0 0)
(1.06231e-06 0 0)
(1.87053e-06 0 0)
(3.26529e-06 0 0)
(5.6503e-06 0 0)
(9.69083e-06 0 0)
(1.64716e-05 0 0)
(2.77423e-05 0 0)
(4.6294e-05 0 0)
(7.65288e-05 0 0)
(0.00012531 0 0)
(0.00020321 0 0)
(0.000326323 0 0)
(0.000518833 0 0)
(0.000816629 0 0)
(0.00127226 0 0)
(0.00196163 0 0)
(0.00299284 0 0)
(0.00451764 0 0)
(0.00674586 0 0)
(0.00996314 0 0)
(0.0145521 0 0)
(0.0210168 0 0)
(0.0300095 0 0)
(0.0423591 0 0)
(0.0590992 0 0)
(0.0814927 0 0)
(0.11105 0 0)
(0.149539 0 0)
(0.198979 0 0)
(0.26162 0 0)
(0.339898 0 0)
(0.436377 0 0)
(0.553667 0 0)
(0.694321 0 0)
(0.86073 0 0)
(1.05501 0 0)
(1.2789 0 0)
(1.53364 0 0)
(1.81995 0 0)
(2.13794 0 0)
(2.48713 0 0)
(2.86646 0 0)
(3.27435 0 0)
(3.70879 0 0)
(4.16745 0 0)
(4.64776 0 0)
(5.14707 0 0)
(5.66272 0 0)
(6.19218 0 0)
(6.73308 0 0)
(7.28331 0 0)
(7.84102 0 0)
(8.40464 0 0)
(8.97288 0 0)
(9.54474 0 0)
(10.1193 0 0)
(10.6963 0 0)
(11.2741 0 0)
(11.8553 0 0)
(12.4359 0 0)
(13.0178 0 0)
(13.6009 0 0)
(14.1848 0 0)
(14.7695 0 0)
(15.3551 0 0)
(15.9416 0 0)
(16.529 0 0)
(17.1173 0 0)
(17.7065 0 0)
(18.2967 0 0)
(18.888 0 0)
(19.4804 0 0)
(20.0739 0 0)
(20.6687 0 0)
(21.2647 0 0)
(21.8621 0 0)
(22.4609 0 0)
(23.0612 0 0)
(23.663 0 0)
(24.2664 0 0)
(24.8715 0 0)
(25.4783 0 0)
(26.0869 0 0)
(26.6973 0 0)
(27.3097 0 0)
(27.9239 0 0)
(28.5402 0 0)
(29.1585 0 0)
(29.7789 0 0)
(30.4014 0 0)
(31.0261 0 0)
(31.653 0 0)
(32.2821 0 0)
(32.9134 0 0)
(33.547 0 0)
(34.1829 0 0)
(34.8211 0 0)
(35.4616 0 0)
(36.1043 0 0)
(36.7492 0 0)
(37.3963 0 0)
(38.0455 0 0)
(38.6968 0 0)
(39.3502 0 0)
(40.0057 0 0)
(40.6631 0 0)
(41.3227 0 0)
(41.9842 0 0)
(42.6478 0 0)
(43.3134 0 0)
(43.9811 0 0)
(44.6509 0 0)
(45.3229 0 0)
(45.997 0 0)
(46.6733 0 0)
(47.3519 0 0)
(48.0327 0 0)
(48.7158 0 0)
(49.4013 0 0)
(50.0891 0 0)
(50.7793 0 0)
(51.4722 0 0)
(52.167 0 0)
(52.8654 0 0)
(53.5642 0 0)
(54.2697 0 0)
(54.9699 0 0)
(55.687 0 0)
(56.3813 0 0)
(57.1209 0 0)
(57.7933 0 0)
(58.5764 0 0)
(59.2012 0 0)
(60.0551 0 0)
(60.6087 0 0)
(61.5448 0 0)
(62.0357 0 0)
(63.0181 0 0)
(63.5055 0 0)
(64.4849 0 0)
(64.9803 0 0)
(65.9689 0 0)
(66.4636 0 0)
(67.4585 0 0)
(67.958 0 0)
(68.9586 0 0)
(69.4601 0 0)
(70.4675 0 0)
(70.9724 0 0)
(71.9835 0 0)
(72.4928 0 0)
(73.5014 0 0)
(74.0165 0 0)
(75.0176 0 0)
(75.5292 0 0)
(76.5064 0 0)
(76.9994 0 0)
(78.6199 0 0)
)
;

boundaryField
{
    sideLeft
    {
        type            symmetryPlane;
    }
    sideRight
    {
        type            zeroGradient;
    }
    topbottom
    {
        type            empty;
    }
    frontback
    {
        type            empty;
    }
}


// ************************************************************************* //
