/*--------------------------------*- C++ -*----------------------------------*\
| =========                 |                                                 |
| \\      /  F ield         | OpenFOAM: The Open Source CFD Toolbox           |
|  \\    /   O peration     | Version:  2.4.0                                 |
|   \\  /    A nd           | Web:      www.OpenFOAM.org                      |
|    \\/     M anipulation  |                                                 |
\*---------------------------------------------------------------------------*/
FoamFile
{
    version     2.0;
    format      ascii;
    class       volVectorField;
    location    "0.04";
    object      Ur;
}
// * * * * * * * * * * * * * * * * * * * * * * * * * * * * * * * * * * * * * //

dimensions      [0 1 -1 0 0 0 0];

internalField   nonuniform List<vector> 
1000
(
(-1.42109e-14 0 0)
(-1.42109e-14 0 0)
(2.13163e-14 0 0)
(-3.55271e-14 0 0)
(-6.39488e-14 0 0)
(-2.29816e-21 0 0)
(3.55271e-14 0 0)
(3.55271e-14 0 0)
(2.13163e-14 0 0)
(3.55271e-14 0 0)
(-3.55271e-14 0 0)
(-2.13163e-14 0 0)
(2.13163e-14 0 0)
(-2.84217e-14 0 0)
(-7.10543e-15 0 0)
(7.10543e-15 0 0)
(2.13163e-14 0 0)
(3.55271e-14 0 0)
(-2.13163e-14 0 0)
(-4.9738e-14 0 0)
(-2.13163e-14 0 0)
(1.42109e-14 0 0)
(3.55271e-14 0 0)
(-2.13163e-14 0 0)
(2.13163e-14 0 0)
(-1.42109e-14 0 0)
(-7.10543e-14 0 0)
(-4.26326e-14 0 0)
(2.13163e-14 0 0)
(4.26326e-14 0 0)
(2.84217e-14 0 0)
(4.9738e-14 0 0)
(-3.84808e-22 0 0)
(-4.26326e-14 0 0)
(-2.13163e-14 0 0)
(2.84217e-14 0 0)
(7.10543e-15 0 0)
(-1.42109e-14 0 0)
(-7.10543e-15 0 0)
(-7.10543e-15 0 0)
(2.84217e-14 0 0)
(3.55271e-14 0 0)
(-2.13163e-14 0 0)
(-7.10543e-15 0 0)
(-1.42109e-14 0 0)
(7.10543e-15 0 0)
(7.10543e-15 0 0)
(8.29936e-22 0 0)
(2.84217e-14 0 0)
(-4.26326e-14 0 0)
(-5.68434e-14 0 0)
(1.42109e-14 0 0)
(4.9738e-14 0 0)
(2.13163e-14 0 0)
(2.84217e-14 0 0)
(3.55271e-14 0 0)
(-3.49519e-21 0 0)
(-2.13163e-14 0 0)
(-1.42109e-14 0 0)
(7.10543e-15 0 0)
(1.42109e-14 0 0)
(2.13163e-14 0 0)
(1.42109e-14 0 0)
(-1.42109e-14 0 0)
(-2.84217e-14 0 0)
(-2.13163e-14 0 0)
(-2.84217e-14 0 0)
(2.84217e-14 0 0)
(-2.13163e-14 0 0)
(-4.26326e-14 0 0)
(7.10543e-15 0 0)
(-7.10543e-15 0 0)
(-7.10543e-15 0 0)
(1.42109e-14 0 0)
(4.26326e-14 0 0)
(-5.68434e-14 0 0)
(-7.10543e-15 0 0)
(4.26326e-14 0 0)
(2.84217e-14 0 0)
(2.13163e-14 0 0)
(-2.84217e-14 0 0)
(1.42109e-14 0 0)
(1.42277e-21 0 0)
(-2.13163e-14 0 0)
(-3.55271e-14 0 0)
(1.4221e-21 0 0)
(1.42109e-14 0 0)
(-2.13163e-14 0 0)
(3.55271e-14 0 0)
(7.10543e-14 0 0)
(-2.13163e-14 0 0)
(-5.68434e-14 0 0)
(-7.81597e-14 0 0)
(6.39488e-14 0 0)
(7.10543e-14 0 0)
(-6.39488e-14 0 0)
(3.55271e-14 0 0)
(3.55271e-14 0 0)
(-7.10543e-15 0 0)
(7.10543e-15 0 0)
(6.61676e-22 0 0)
(-1.88143e-21 0 0)
(-4.11041e-22 0 0)
(2.13163e-14 0 0)
(-7.10543e-15 0 0)
(-5.68434e-14 0 0)
(-4.26326e-14 0 0)
(-7.10543e-15 0 0)
(1.42109e-14 0 0)
(-1.42109e-14 0 0)
(2.84217e-14 0 0)
(7.10543e-15 0 0)
(-2.13163e-14 0 0)
(6.39488e-14 0 0)
(7.81597e-14 0 0)
(-7.10543e-15 0 0)
(-2.84217e-14 0 0)
(-3.55271e-14 0 0)
(-1.42109e-14 0 0)
(-1.42628e-21 0 0)
(-9.27182e-22 0 0)
(-1.32335e-21 0 0)
(-1.42109e-14 0 0)
(7.10543e-15 0 0)
(7.10543e-15 0 0)
(2.13163e-14 0 0)
(-2.13163e-14 0 0)
(-1.42109e-14 0 0)
(4.9738e-14 0 0)
(-4.9738e-14 0 0)
(1.42109e-14 0 0)
(9.9476e-14 0 0)
(1.42109e-14 0 0)
(2.24352e-21 0 0)
(-2.84217e-14 0 0)
(-2.13163e-14 0 0)
(7.10543e-15 0 0)
(-7.10543e-14 0 0)
(-3.55271e-14 0 0)
(7.10543e-14 0 0)
(4.9738e-14 0 0)
(-3.55271e-14 0 0)
(-2.84217e-14 0 0)
(5.68434e-14 0 0)
(7.10543e-15 0 0)
(-5.68434e-14 0 0)
(1.42109e-14 0 0)
(6.39488e-14 0 0)
(-4.9738e-14 0 0)
(-4.9738e-14 0 0)
(2.13163e-14 0 0)
(1.42109e-14 0 0)
(-1.75294e-21 0 0)
(2.84217e-14 0 0)
(-1.80257e-21 0 0)
(2.13163e-14 0 0)
(5.68434e-14 0 0)
(-2.84217e-14 0 0)
(-4.26326e-14 0 0)
(1.42109e-14 0 0)
(4.26326e-14 0 0)
(4.26326e-14 0 0)
(-5.68434e-14 0 0)
(-8.52651e-14 0 0)
(4.26326e-14 0 0)
(5.68434e-14 0 0)
(-1.42109e-14 0 0)
(-4.26326e-14 0 0)
(1.69964e-21 0 0)
(2.13163e-14 0 0)
(7.10543e-15 0 0)
(-7.10543e-15 0 0)
(-7.10543e-15 0 0)
(-7.10543e-15 0 0)
(-1.42109e-14 0 0)
(-7.10543e-15 0 0)
(1.42109e-14 0 0)
(2.84217e-14 0 0)
(-1.1997e-22 0 0)
(-2.84217e-14 0 0)
(1.42109e-14 0 0)
(1.42109e-14 0 0)
(-7.10543e-15 0 0)
(8.52651e-14 0 0)
(2.13163e-14 0 0)
(-5.68434e-14 0 0)
(2.84217e-14 0 0)
(2.84217e-14 0 0)
(-4.26326e-14 0 0)
(-4.26326e-14 0 0)
(-4.26326e-14 0 0)
(1.18634e-21 0 0)
(1.42109e-14 0 0)
(-7.10543e-15 0 0)
(2.13163e-14 0 0)
(-4.26326e-14 0 0)
(1.42109e-14 0 0)
(4.9738e-14 0 0)
(-3.55271e-14 0 0)
(-7.10543e-15 0 0)
(2.13163e-14 0 0)
(-2.13163e-14 0 0)
(2.13163e-14 0 0)
(3.55271e-14 0 0)
(-1.42109e-14 0 0)
(7.10543e-15 0 0)
(3.55271e-14 0 0)
(-4.26326e-14 0 0)
(-7.81597e-14 0 0)
(2.13163e-14 0 0)
(2.13163e-14 0 0)
(3.55271e-14 0 0)
(6.39488e-14 0 0)
(8.93763e-22 0 0)
(7.10543e-15 0 0)
(-2.13163e-14 0 0)
(-2.13163e-14 0 0)
(7.10543e-14 0 0)
(-6.39488e-14 0 0)
(-7.10543e-14 0 0)
(-7.24836e-22 0 0)
(-2.13163e-14 0 0)
(4.9738e-14 0 0)
(4.9738e-14 0 0)
(-1.42109e-14 0 0)
(-5.68434e-14 0 0)
(-1.42109e-14 0 0)
(7.81597e-14 0 0)
(2.84217e-14 0 0)
(7.10543e-15 0 0)
(2.13163e-14 0 0)
(-4.9738e-14 0 0)
(-4.9738e-14 0 0)
(-1.79338e-21 0 0)
(7.10543e-15 0 0)
(-7.10543e-15 0 0)
(7.81597e-14 0 0)
(2.13163e-14 0 0)
(-4.9738e-14 0 0)
(-2.13163e-14 0 0)
(4.26326e-14 0 0)
(7.10543e-15 0 0)
(-7.10543e-14 0 0)
(1.42109e-14 0 0)
(3.55271e-14 0 0)
(-1.42109e-14 0 0)
(-1.42109e-14 0 0)
(9.0663e-22 0 0)
(2.31169e-21 0 0)
(-3.55271e-14 0 0)
(7.10543e-15 0 0)
(1.06581e-13 0 0)
(4.26326e-14 0 0)
(-6.39488e-14 0 0)
(-5.68434e-14 0 0)
(1.42109e-14 0 0)
(1.42109e-14 0 0)
(7.10543e-15 0 0)
(-9.08975e-23 0 0)
(2.84217e-14 0 0)
(6.39488e-14 0 0)
(-2.13163e-14 0 0)
(-2.13163e-14 0 0)
(8.31441e-22 0 0)
(-7.10543e-15 0 0)
(-2.13163e-14 0 0)
(-3.55271e-14 0 0)
(-2.13163e-14 0 0)
(-5.68434e-14 0 0)
(1.42109e-14 0 0)
(9.23706e-14 0 0)
(4.9738e-14 0 0)
(-2.84217e-14 0 0)
(-2.84217e-14 0 0)
(1.42109e-14 0 0)
(1.42109e-14 0 0)
(-6.78052e-22 0 0)
(-2.84217e-14 0 0)
(3.47214e-22 0 0)
(2.13163e-14 0 0)
(2.13163e-14 0 0)
(7.10543e-15 0 0)
(7.10543e-15 0 0)
(1.42109e-14 0 0)
(-1.42109e-14 0 0)
(-1.42109e-14 0 0)
(-2.84217e-14 0 0)
(-4.97592e-22 0 0)
(-1.42109e-14 0 0)
(2.13163e-14 0 0)
(3.55271e-14 0 0)
(-7.10543e-15 0 0)
(6.39488e-14 0 0)
(-1.42109e-14 0 0)
(-5.68434e-14 0 0)
(3.55271e-14 0 0)
(3.55271e-14 0 0)
(-4.26326e-14 0 0)
(-2.84217e-14 0 0)
(5.68434e-14 0 0)
(3.55271e-14 0 0)
(-4.26326e-14 0 0)
(-4.26326e-14 0 0)
(-7.10543e-15 0 0)
(4.26326e-14 0 0)
(3.55271e-14 0 0)
(-2.84217e-14 0 0)
(2.84217e-14 0 0)
(7.10543e-15 0 0)
(-7.81597e-14 0 0)
(-3.55271e-14 0 0)
(7.10543e-15 0 0)
(4.9738e-14 0 0)
(7.10543e-15 0 0)
(-2.84217e-14 0 0)
(2.10784e-21 0 0)
(2.13163e-14 0 0)
(2.13163e-14 0 0)
(-1.42109e-14 0 0)
(-7.10543e-15 0 0)
(2.84217e-14 0 0)
(2.84217e-14 0 0)
(1.42109e-14 0 0)
(7.10543e-15 0 0)
(-3.55271e-14 0 0)
(-2.08946e-21 0 0)
(-1.94961e-21 0 0)
(-2.13163e-14 0 0)
(-9.29355e-22 0 0)
(7.10543e-15 0 0)
(-3.55271e-14 0 0)
(-3.55271e-14 0 0)
(5.68434e-14 0 0)
(7.10543e-14 0 0)
(7.10543e-15 0 0)
(2.84217e-14 0 0)
(-9.32862e-22 0 0)
(-4.9738e-14 0 0)
(3.55271e-14 0 0)
(-7.10543e-15 0 0)
(-2.84217e-14 0 0)
(7.10543e-15 0 0)
(-1.42109e-14 0 0)
(-4.9738e-14 0 0)
(2.13163e-14 0 0)
(9.9476e-14 0 0)
(7.10543e-15 0 0)
(-5.68434e-14 0 0)
(4.50141e-22 0 0)
(1.42109e-14 0 0)
(-4.9738e-14 0 0)
(-7.10543e-15 0 0)
(3.55271e-14 0 0)
(2.13163e-14 0 0)
(1.42109e-14 0 0)
(-4.26326e-14 0 0)
(-4.26326e-14 0 0)
(3.55271e-14 0 0)
(4.9738e-14 0 0)
(-3.55271e-14 0 0)
(1.42109e-14 0 0)
(3.55271e-14 0 0)
(-7.10543e-15 0 0)
(1.42109e-14 0 0)
(2.13163e-14 0 0)
(7.10543e-15 0 0)
(-1.20792e-13 0 0)
(-2.84217e-14 0 0)
(7.81597e-14 0 0)
(3.33829e-21 0 0)
(-5.68434e-14 0 0)
(-4.26326e-14 0 0)
(2.13163e-14 0 0)
(5.68434e-14 0 0)
(4.9738e-14 0 0)
(-1.19269e-21 0 0)
(-4.9738e-14 0 0)
(-3.70606e-22 0 0)
(6.39488e-14 0 0)
(5.68434e-14 0 0)
(-5.133e-22 0 0)
(-9.23706e-14 0 0)
(-4.26326e-14 0 0)
(-2.84217e-14 0 0)
(-1.42109e-14 0 0)
(2.84217e-14 0 0)
(2.13163e-14 0 0)
(1.42109e-14 0 0)
(1.42109e-14 0 0)
(2.84217e-14 0 0)
(-2.13163e-14 0 0)
(-1.42109e-14 0 0)
(5.51065e-22 0 0)
(-4.9738e-14 0 0)
(-2.84217e-14 0 0)
(2.84217e-14 0 0)
(2.13163e-14 0 0)
(1.42109e-14 0 0)
(-2.13163e-14 0 0)
(2.13163e-14 0 0)
(1.42109e-14 0 0)
(-1.42109e-14 0 0)
(3.55271e-14 0 0)
(-7.10543e-15 0 0)
(-2.13163e-14 0 0)
(-9.0663e-22 0 0)
(4.26326e-14 0 0)
(1.42109e-14 0 0)
(-4.9738e-14 0 0)
(2.84217e-14 0 0)
(1.20792e-13 0 0)
(-7.10543e-15 0 0)
(-9.23706e-14 0 0)
(-7.10543e-15 0 0)
(2.84217e-14 0 0)
(-7.10543e-15 0 0)
(3.55271e-14 0 0)
(1.42109e-14 0 0)
(-2.84217e-14 0 0)
(7.10543e-15 0 0)
(-7.10543e-15 0 0)
(-2.84217e-14 0 0)
(-3.55271e-14 0 0)
(7.10543e-15 0 0)
(2.13163e-14 0 0)
(2.84217e-14 0 0)
(1.42109e-14 0 0)
(-2.84217e-14 0 0)
(2.84217e-14 0 0)
(4.9738e-14 0 0)
(-2.13163e-14 0 0)
(-2.13163e-14 0 0)
(-7.10543e-15 0 0)
(-1.42109e-14 0 0)
(7.10543e-15 0 0)
(7.10543e-14 0 0)
(-7.10543e-15 0 0)
(-2.13163e-14 0 0)
(1.42109e-14 0 0)
(-8.0153e-22 0 0)
(-2.13163e-14 0 0)
(-4.26326e-14 0 0)
(-1.42109e-14 0 0)
(7.10543e-15 0 0)
(4.26326e-14 0 0)
(4.26326e-14 0 0)
(3.55271e-14 0 0)
(-3.55271e-14 0 0)
(-4.26326e-14 0 0)
(-3.55271e-14 0 0)
(-2.13163e-14 0 0)
(-7.10543e-15 0 0)
(2.84217e-14 0 0)
(3.55271e-14 0 0)
(1.42109e-14 0 0)
(7.10543e-15 0 0)
(7.10543e-15 0 0)
(-7.10543e-14 0 0)
(-3.55271e-14 0 0)
(6.39488e-14 0 0)
(1.42109e-14 0 0)
(6.39488e-14 0 0)
(7.10543e-15 0 0)
(-8.52651e-14 0 0)
(-2.13163e-14 0 0)
(2.84217e-14 0 0)
(-7.10543e-15 0 0)
(3.55271e-14 0 0)
(1.42109e-14 0 0)
(-2.84217e-14 0 0)
(4.26326e-14 0 0)
(-2.13163e-14 0 0)
(-2.84217e-14 0 0)
(2.84217e-14 0 0)
(-2.13163e-14 0 0)
(-2.13163e-14 0 0)
(7.10543e-15 0 0)
(4.26326e-14 0 0)
(-1.42109e-14 0 0)
(-3.55271e-14 0 0)
(7.81597e-14 0 0)
(-1.42109e-14 0 0)
(-7.10543e-14 0 0)
(2.13163e-14 0 0)
(2.13163e-14 0 0)
(-6.12052e-22 0 0)
(-1.42109e-14 0 0)
(-7.10543e-15 0 0)
(-7.10543e-15 0 0)
(1.42109e-14 0 0)
(-7.10543e-15 0 0)
(-4.9738e-14 0 0)
(7.10543e-15 0 0)
(1.42109e-14 0 0)
(1.42109e-14 0 0)
(-2.15613e-21 0 0)
(-3.55271e-14 0 0)
(2.84217e-14 0 0)
(3.55271e-14 0 0)
(-7.10543e-15 0 0)
(-1.42109e-14 0 0)
(4.26326e-14 0 0)
(2.84217e-14 0 0)
(-4.9738e-14 0 0)
(-2.13163e-14 0 0)
(7.10543e-15 0 0)
(1.42109e-14 0 0)
(2.84217e-14 0 0)
(1.39938e-21 0 0)
(-3.55271e-14 0 0)
(-7.10543e-15 0 0)
(2.84217e-14 0 0)
(7.10543e-15 0 0)
(-4.26326e-14 0 0)
(-6.39488e-14 0 0)
(7.10543e-15 0 0)
(4.26326e-14 0 0)
(2.13163e-14 0 0)
(7.10543e-15 0 0)
(-1.75294e-21 0 0)
(-5.26836e-22 0 0)
(1.42109e-14 0 0)
(7.10543e-15 0 0)
(2.13163e-14 0 0)
(-4.9738e-14 0 0)
(-1.42109e-14 0 0)
(1.06581e-13 0 0)
(1.42109e-14 0 0)
(-2.84217e-14 0 0)
(-1.42109e-14 0 0)
(3.84141e-22 0 0)
(-1.42109e-14 0 0)
(-2.13163e-14 0 0)
(2.13163e-14 0 0)
(3.55271e-14 0 0)
(-7.10543e-15 0 0)
(-1.42109e-14 0 0)
(-7.10542e-15 0 0)
(2.84217e-14 0 0)
(2.84217e-14 0 0)
(-4.26326e-14 0 0)
(-3.55271e-14 0 0)
(7.10543e-15 0 0)
(1.42109e-14 0 0)
(1.42109e-14 0 0)
(2.13163e-14 0 0)
(2.84217e-14 0 0)
(-2.84217e-14 0 0)
(-9.23706e-14 0 0)
(4.9738e-14 0 0)
(8.52651e-14 0 0)
(-2.13163e-14 0 0)
(-3.55271e-14 0 0)
(8.52651e-14 0 0)
(6.39488e-14 0 0)
(-7.10543e-14 0 0)
(-5.68434e-14 0 0)
(-3.5423e-22 0 0)
(7.10543e-15 0 0)
(-2.13163e-14 0 0)
(2.13163e-14 0 0)
(1.42109e-14 0 0)
(3.70605e-22 0 0)
(2.13163e-14 0 0)
(7.10543e-15 0 0)
(-5.68434e-14 0 0)
(-7.10543e-14 0 0)
(-4.26326e-14 0 0)
(1.42109e-14 0 0)
(2.13163e-14 0 0)
(1.42109e-14 0 0)
(2.13163e-14 0 0)
(-7.10543e-15 0 0)
(-2.84217e-14 0 0)
(1.42109e-14 0 0)
(3.55271e-14 0 0)
(-4.9738e-14 0 0)
(2.40743e-21 0 0)
(3.04572e-21 0 0)
(7.10543e-15 0 0)
(1.42109e-14 0 0)
(-7.10543e-15 0 0)
(5.68434e-14 0 0)
(-2.84217e-14 0 0)
(-5.68434e-14 0 0)
(7.10542e-15 0 0)
(4.9738e-14 0 0)
(7.10543e-14 0 0)
(-7.10543e-14 0 0)
(-3.55271e-14 0 0)
(5.68434e-14 0 0)
(-7.10543e-15 0 0)
(-7.10543e-15 0 0)
(2.13163e-14 0 0)
(-7.10543e-15 0 0)
(-1.42109e-14 0 0)
(2.84217e-14 0 0)
(-1.61593e-21 0 0)
(-2.72206e-21 0 0)
(-8.5266e-22 0 0)
(7.10543e-15 0 0)
(3.55271e-14 0 0)
(-7.10543e-15 0 0)
(-4.26326e-14 0 0)
(-2.84217e-14 0 0)
(1.42109e-14 0 0)
(-7.10543e-15 0 0)
(-2.84217e-14 0 0)
(-1.42109e-14 0 0)
(-7.10543e-15 0 0)
(5.68434e-14 0 0)
(2.13163e-14 0 0)
(-7.10543e-15 0 0)
(-7.10543e-15 0 0)
(-4.26326e-14 0 0)
(-2.13163e-14 0 0)
(1.42109e-14 0 0)
(6.39488e-14 0 0)
(7.10543e-15 0 0)
(-3.55271e-14 0 0)
(7.10543e-15 0 0)
(-7.10543e-15 0 0)
(-7.10543e-15 0 0)
(-7.10543e-15 0 0)
(3.55271e-14 0 0)
(2.84217e-14 0 0)
(-4.26326e-14 0 0)
(-3.55271e-14 0 0)
(-7.10543e-15 0 0)
(3.55271e-14 0 0)
(5.68434e-14 0 0)
(-7.10543e-15 0 0)
(-4.26326e-14 0 0)
(2.13163e-14 0 0)
(6.39488e-14 0 0)
(-2.35563e-21 0 0)
(-6.39488e-14 0 0)
(-2.13163e-14 0 0)
(7.10543e-15 0 0)
(2.13163e-14 0 0)
(-6.39488e-14 0 0)
(-5.68434e-14 0 0)
(7.10543e-14 0 0)
(5.68434e-14 0 0)
(-7.10543e-15 0 0)
(-3.55271e-14 0 0)
(2.84217e-14 0 0)
(4.26326e-14 0 0)
(-6.52487e-22 0 0)
(-1.42109e-14 0 0)
(-1.42109e-14 0 0)
(-7.10543e-15 0 0)
(1.21758e-21 0 0)
(1.42109e-14 0 0)
(-2.84217e-14 0 0)
(-1.42109e-14 0 0)
(3.55271e-14 0 0)
(4.26326e-14 0 0)
(-1.42109e-14 0 0)
(-1.42109e-14 0 0)
(1.42109e-14 0 0)
(-2.84217e-14 0 0)
(2.13163e-14 0 0)
(-7.10543e-15 0 0)
(-4.26326e-14 0 0)
(-7.10543e-15 0 0)
(1.42109e-14 0 0)
(1.42109e-14 0 0)
(3.55271e-14 0 0)
(2.13163e-14 0 0)
(-3.55271e-14 0 0)
(-3.55271e-14 0 0)
(4.26326e-14 0 0)
(2.84217e-14 0 0)
(-7.10543e-15 0 0)
(1.42109e-14 0 0)
(-3.55271e-14 0 0)
(-7.10542e-15 0 0)
(7.10543e-15 0 0)
(-3.55271e-14 0 0)
(-1.42109e-14 0 0)
(7.10543e-15 0 0)
(2.13163e-14 0 0)
(7.10543e-15 0 0)
(-2.84217e-14 0 0)
(-2.84217e-14 0 0)
(-2.09097e-21 0 0)
(4.9738e-14 0 0)
(-1.42109e-14 0 0)
(-6.39488e-14 0 0)
(-1.42109e-14 0 0)
(7.10543e-14 0 0)
(5.68434e-14 0 0)
(1.95311e-21 0 0)
(-2.13163e-14 0 0)
(-4.26326e-14 0 0)
(1.19068e-21 0 0)
(7.10543e-15 0 0)
(-7.10543e-15 0 0)
(8.52651e-14 0 0)
(7.10543e-14 0 0)
(-5.68434e-14 0 0)
(-3.55271e-14 0 0)
(4.9738e-14 0 0)
(1.42109e-14 0 0)
(-6.39488e-14 0 0)
(-2.84217e-14 0 0)
(1.42109e-14 0 0)
(7.10543e-14 0 0)
(2.84217e-14 0 0)
(1.42109e-14 0 0)
(-5.68434e-14 0 0)
(-1.13687e-13 0 0)
(2.13163e-14 0 0)
(3.55271e-14 0 0)
(7.10543e-15 0 0)
(1.42109e-14 0 0)
(-4.26326e-14 0 0)
(-7.10543e-14 0 0)
(-4.61162e-23 0 0)
(4.9738e-14 0 0)
(3.55271e-14 0 0)
(2.13163e-14 0 0)
(7.10543e-15 0 0)
(-2.84217e-14 0 0)
(-1.42109e-14 0 0)
(7.10543e-15 0 0)
(4.26326e-14 0 0)
(1.42109e-14 0 0)
(-7.81597e-14 0 0)
(-4.9738e-14 0 0)
(-2.84217e-14 0 0)
(4.9738e-14 0 0)
(4.9738e-14 0 0)
(-4.26326e-14 0 0)
(-7.10543e-15 0 0)
(2.84217e-14 0 0)
(6.39488e-14 0 0)
(7.10543e-15 0 0)
(-2.84217e-14 0 0)
(-5.33184e-22 0 0)
(-2.84217e-14 0 0)
(4.46633e-22 0 0)
(-2.13163e-14 0 0)
(-2.84217e-14 0 0)
(7.10543e-14 0 0)
(3.55271e-14 0 0)
(7.10543e-15 0 0)
(5.41706e-22 0 0)
(1.81827e-21 0 0)
(2.13163e-14 0 0)
(-7.10543e-15 0 0)
(-4.26326e-14 0 0)
(-3.55271e-14 0 0)
(-4.9738e-14 0 0)
(-1.60022e-21 0 0)
(-1.42109e-14 0 0)
(7.28344e-22 0 0)
(4.26326e-14 0 0)
(7.10543e-15 0 0)
(4.26326e-14 0 0)
(-7.10543e-15 0 0)
(-3.55271e-14 0 0)
(-7.10543e-15 0 0)
(-2.84217e-14 0 0)
(3.55271e-14 0 0)
(5.68434e-14 0 0)
(-7.10542e-15 0 0)
(7.10543e-15 0 0)
(-3.55271e-14 0 0)
(-2.84217e-14 0 0)
(-7.10543e-15 0 0)
(7.81597e-14 0 0)
(1.27898e-13 0 0)
(-3.55271e-14 0 0)
(-1.06581e-13 0 0)
(-4.26326e-14 0 0)
(2.84217e-14 0 0)
(7.81597e-14 0 0)
(2.13163e-14 0 0)
(-2.84217e-14 0 0)
(-3.55271e-14 0 0)
(-7.10543e-14 0 0)
(-1.42109e-14 0 0)
(6.39488e-14 0 0)
(1.42109e-14 0 0)
(-9.85498e-22 0 0)
(9.23706e-14 0 0)
(5.15473e-22 0 0)
(-8.52651e-14 0 0)
(-4.26326e-14 0 0)
(-3.79795e-22 0 0)
(7.10543e-15 0 0)
(-1.0657e-21 0 0)
(7.10543e-15 0 0)
(-3.55271e-14 0 0)
(-2.84722e-22 0 0)
(1.06581e-13 0 0)
(3.55271e-14 0 0)
(-7.10543e-14 0 0)
(-4.9738e-14 0 0)
(-1.42109e-14 0 0)
(-2.13163e-14 0 0)
(-7.10543e-15 0 0)
(4.26326e-14 0 0)
(-1.42109e-14 0 0)
(-2.13163e-14 0 0)
(1.42109e-14 0 0)
(4.9738e-14 0 0)
(-6.39488e-14 0 0)
(-5.68434e-14 0 0)
(6.39489e-14 0 0)
(2.13163e-14 0 0)
(-4.9738e-14 0 0)
(1.23897e-21 0 0)
(2.13163e-14 0 0)
(-7.10543e-15 0 0)
(1.33121e-21 0 0)
(-7.10542e-15 0 0)
(3.22601e-21 0 0)
(1.42109e-14 0 0)
(6.39489e-14 0 0)
(2.84217e-14 0 0)
(7.10543e-14 0 0)
(1.20792e-13 0 0)
(1.63425e-13 0 0)
(3.41061e-13 0 0)
(6.96332e-13 0 0)
(1.36424e-12 0 0)
(2.70006e-12 0 0)
(5.26513e-12 0 0)
(9.79129e-12 0 0)
(1.83889e-11 0 0)
(3.41629e-11 0 0)
(6.28831e-11 0 0)
(1.14945e-10 0 0)
(2.08225e-10 0 0)
(3.74151e-10 0 0)
(6.66284e-10 0 0)
(1.17618e-09 0 0)
(2.05771e-09 0 0)
(3.56719e-09 0 0)
(6.12724e-09 0 0)
(1.04255e-08 0 0)
(1.75697e-08 0 0)
(2.93224e-08 0 0)
(4.84526e-08 0 0)
(7.92582e-08 0 0)
(1.28321e-07 0 0)
(2.05584e-07 0 0)
(3.25862e-07 0 0)
(5.10899e-07 0 0)
(7.92132e-07 0 0)
(1.21428e-06 0 0)
(1.83989e-06 0 0)
(2.75491e-06 0 0)
(4.07519e-06 0 0)
(5.95373e-06 0 0)
(8.58822e-06 0 0)
(1.2228e-05 0 0)
(1.71792e-05 0 0)
(2.38065e-05 0 0)
(3.25297e-05 0 0)
(4.38117e-05 0 0)
(5.81374e-05 0 0)
(7.59799e-05 0 0)
(9.77539e-05 0 0)
(0.000123757 0 0)
(0.000154104 0 0)
(0.000188651 0 0)
(0.000226936 0 0)
(0.000268125 0 0)
(0.000310994 0 0)
(0.000353942 0 0)
(0.000395058 0 0)
(0.000432233 0 0)
(0.00046331 0 0)
(0.000486269 0 0)
(0.000499416 0 0)
(0.000501555 0 0)
(0.000492125 0 0)
(0.000471265 0 0)
(0.000439822 0 0)
(0.000399272 0 0)
(0.000351589 0 0)
(0.000299065 0 0)
(0.000244105 0 0)
(0.000189039 0 0)
(0.000135943 0 0)
(8.65195e-05 0 0)
(4.20146e-05 0 0)
(3.19978e-06 0 0)
(-2.96054e-05 0 0)
(-5.64707e-05 0 0)
(-7.7773e-05 0 0)
(-9.41057e-05 0 0)
(-0.000106191 0 0)
(-0.000114827 0 0)
(-0.000120562 0 0)
(-0.000119591 0 0)
(-0.000120213 0 0)
(-0.000124939 0 0)
(-0.000125669 0 0)
(-0.000124986 0 0)
(-0.000123839 0 0)
(-0.000122412 0 0)
(-0.000120799 0 0)
(-0.000119064 0 0)
(-0.00011725 0 0)
(-0.000115386 0 0)
(-0.000113496 0 0)
(-0.000111595 0 0)
(-0.000109696 0 0)
(-0.000107808 0 0)
(-0.000105942 0 0)
(-0.000104104 0 0)
(-0.000102301 0 0)
(-0.000100539 0 0)
(-9.88234e-05 0 0)
(-9.71585e-05 0 0)
(-9.55483e-05 0 0)
(-9.39957e-05 0 0)
(-9.25034e-05 0 0)
(-9.10728e-05 0 0)
(-8.97044e-05 0 0)
(-8.83971e-05 0 0)
(-8.71485e-05 0 0)
(-8.59547e-05 0 0)
(-8.48107e-05 0 0)
(-8.37116e-05 0 0)
(-8.26538e-05 0 0)
(-8.16361e-05 0 0)
(-8.06612e-05 0 0)
(-7.97358e-05 0 0)
(-7.88698e-05 0 0)
(-7.80737e-05 0 0)
(-7.7356e-05 0 0)
(-7.67189e-05 0 0)
(-7.61562e-05 0 0)
(-7.56516e-05 0 0)
(-7.51803e-05 0 0)
(-7.47127e-05 0 0)
(-7.42201e-05 0 0)
(-7.36794e-05 0 0)
(-7.30775e-05 0 0)
(-7.24105e-05 0 0)
(-7.16816e-05 0 0)
(-7.08971e-05 0 0)
(-7.00629e-05 0 0)
(-6.91854e-05 0 0)
(-6.8273e-05 0 0)
(-6.7338e-05 0 0)
(-6.63955e-05 0 0)
(-6.54587e-05 0 0)
(-6.45349e-05 0 0)
(-6.3624e-05 0 0)
(-6.27232e-05 0 0)
(-6.18288e-05 0 0)
(-6.09442e-05 0 0)
(-6.00641e-05 0 0)
(-5.92084e-05 0 0)
(-5.83474e-05 0 0)
(-5.75647e-05 0 0)
(-5.67195e-05 0 0)
(-5.61079e-05 0 0)
(-5.51993e-05 0 0)
(-5.49511e-05 0 0)
(-5.37687e-05 0 0)
(-5.41625e-05 0 0)
(-5.23499e-05 0 0)
(-5.33964e-05 0 0)
(-5.1146e-05 0 0)
(-5.18958e-05 0 0)
(-5.09645e-05 0 0)
(-4.87715e-05 0 0)
(-5.23277e-05 0 0)
(-4.65098e-05 0 0)
(-4.03202e-05 0 0)
(-7.65098e-05 0 0)
(-3.20486e-05 0 0)
(-5.46331e-05 0 0)
(-3.0826e-05 0 0)
(-4.35165e-05 0 0)
(-4.745e-05 0 0)
(-5.31202e-05 0 0)
(-3.09733e-05 0 0)
(-3.28308e-05 0 0)
(-4.87531e-05 0 0)
(-4.68079e-05 0 0)
(-3.38986e-05 0 0)
(-3.40297e-05 0 0)
(-4.33809e-05 0 0)
(-3.90788e-05 0 0)
(-4.17474e-05 0 0)
(-5.71666e-05 0 0)
(-0.00013318 0 0)
(-0.000373634 0 0)
(-0.00137411 0 0)
(-0.00247832 0 0)
(0.0024752 0 0)
)
;

boundaryField
{
    sideLeft
    {
        type            symmetryPlane;
    }
    sideRight
    {
        type            calculated;
        value           uniform (-0.367562 0 0);
    }
    topbottom
    {
        type            empty;
    }
    frontback
    {
        type            empty;
    }
}


// ************************************************************************* //
