/*--------------------------------*- C++ -*----------------------------------*\
| =========                 |                                                 |
| \\      /  F ield         | OpenFOAM: The Open Source CFD Toolbox           |
|  \\    /   O peration     | Version:  2.4.0                                 |
|   \\  /    A nd           | Web:      www.OpenFOAM.org                      |
|    \\/     M anipulation  |                                                 |
\*---------------------------------------------------------------------------*/
FoamFile
{
    version     2.0;
    format      ascii;
    class       volScalarField;
    location    "0.08";
    object      p;
}
// * * * * * * * * * * * * * * * * * * * * * * * * * * * * * * * * * * * * * //

dimensions      [1 -1 -2 0 0 0 0];

internalField   nonuniform List<scalar> 
1000
(
5e+06
5e+06
5e+06
5e+06
5e+06
5e+06
5e+06
5e+06
5e+06
5e+06
5e+06
5e+06
5e+06
5e+06
5e+06
5e+06
5e+06
5e+06
5e+06
5e+06
5e+06
5e+06
5e+06
5e+06
5e+06
5e+06
5e+06
5e+06
5e+06
5e+06
5e+06
5e+06
5e+06
5e+06
5e+06
5e+06
5e+06
5e+06
5e+06
5e+06
5e+06
5e+06
5e+06
5e+06
5e+06
5e+06
5e+06
5e+06
5e+06
5e+06
5e+06
5e+06
5e+06
5e+06
5e+06
5e+06
5e+06
5e+06
5e+06
5e+06
5e+06
5e+06
5e+06
5e+06
5e+06
5e+06
5e+06
5e+06
5e+06
5e+06
5e+06
5e+06
5e+06
5e+06
5e+06
5e+06
5e+06
5e+06
5e+06
5e+06
5e+06
5e+06
5e+06
5e+06
5e+06
5e+06
5e+06
5e+06
5e+06
5e+06
5e+06
5e+06
5e+06
5e+06
5e+06
5e+06
5e+06
5e+06
5e+06
5e+06
5e+06
5e+06
5e+06
5e+06
5e+06
5e+06
5e+06
5e+06
5e+06
5e+06
5e+06
5e+06
5e+06
5e+06
5e+06
5e+06
5e+06
5e+06
5e+06
5e+06
5e+06
5e+06
5e+06
5e+06
5e+06
5e+06
5e+06
5e+06
5e+06
5e+06
5e+06
5e+06
5e+06
5e+06
5e+06
5e+06
5e+06
5e+06
5e+06
5e+06
5e+06
5e+06
5e+06
5e+06
5e+06
5e+06
5e+06
5e+06
5e+06
5e+06
5e+06
5e+06
5e+06
5e+06
5e+06
5e+06
5e+06
5e+06
5e+06
5e+06
5e+06
5e+06
5e+06
5e+06
5e+06
5e+06
5e+06
5e+06
5e+06
5e+06
5e+06
5e+06
5e+06
5e+06
5e+06
5e+06
5e+06
5e+06
5e+06
5e+06
5e+06
5e+06
5e+06
5e+06
5e+06
5e+06
5e+06
5e+06
5e+06
5e+06
5e+06
5e+06
5e+06
5e+06
5e+06
5e+06
5e+06
5e+06
5e+06
5e+06
5e+06
5e+06
5e+06
5e+06
5e+06
5e+06
5e+06
5e+06
5e+06
5e+06
5e+06
5e+06
5e+06
5e+06
5e+06
5e+06
5e+06
5e+06
5e+06
5e+06
5e+06
5e+06
5e+06
5e+06
5e+06
5e+06
5e+06
5e+06
5e+06
5e+06
5e+06
5e+06
5e+06
5e+06
5e+06
5e+06
5e+06
5e+06
5e+06
5e+06
5e+06
5e+06
5e+06
5e+06
5e+06
5e+06
5e+06
5e+06
5e+06
5e+06
5e+06
5e+06
5e+06
5e+06
5e+06
5e+06
5e+06
5e+06
5e+06
5e+06
5e+06
5e+06
5e+06
5e+06
5e+06
5e+06
5e+06
5e+06
5e+06
5e+06
5e+06
5e+06
5e+06
5e+06
5e+06
5e+06
5e+06
5e+06
5e+06
5e+06
5e+06
5e+06
5e+06
5e+06
5e+06
5e+06
5e+06
5e+06
5e+06
5e+06
5e+06
5e+06
5e+06
5e+06
5e+06
5e+06
5e+06
5e+06
5e+06
5e+06
5e+06
5e+06
5e+06
5e+06
5e+06
5e+06
5e+06
5e+06
5e+06
5e+06
5e+06
5e+06
5e+06
5e+06
5e+06
5e+06
5e+06
5e+06
5e+06
5e+06
5e+06
5e+06
5e+06
5e+06
5e+06
5e+06
5e+06
5e+06
5e+06
5e+06
5e+06
5e+06
5e+06
5e+06
5e+06
5e+06
5e+06
5e+06
5e+06
5e+06
5e+06
5e+06
5e+06
5e+06
5e+06
5e+06
5e+06
5e+06
5e+06
5e+06
5e+06
5e+06
5e+06
5e+06
5e+06
5e+06
5e+06
5e+06
5e+06
5e+06
5e+06
5e+06
5e+06
5e+06
5e+06
5e+06
5e+06
5e+06
5e+06
5e+06
5e+06
5e+06
5e+06
5e+06
5e+06
5e+06
5e+06
5e+06
5e+06
5e+06
5e+06
5e+06
5e+06
5e+06
5e+06
5e+06
5e+06
5e+06
5e+06
5e+06
5e+06
5e+06
5e+06
5e+06
5e+06
5e+06
5e+06
5e+06
5e+06
5e+06
5e+06
5e+06
5e+06
5e+06
5e+06
5e+06
5e+06
5e+06
5e+06
5e+06
5e+06
5e+06
5e+06
5e+06
5e+06
5e+06
5e+06
5e+06
5e+06
5e+06
5e+06
5e+06
5e+06
5e+06
5e+06
5e+06
5e+06
5e+06
5e+06
5e+06
5e+06
5e+06
5e+06
5e+06
5e+06
5e+06
5e+06
5e+06
5e+06
5e+06
5e+06
5e+06
5e+06
5e+06
5e+06
5e+06
5e+06
5e+06
5e+06
5e+06
5e+06
5e+06
5e+06
5e+06
5e+06
5e+06
5e+06
5e+06
5e+06
5e+06
5e+06
5e+06
5e+06
5e+06
5e+06
5e+06
5e+06
5e+06
5e+06
5e+06
5e+06
5e+06
5e+06
5e+06
5e+06
5e+06
5e+06
5e+06
5e+06
5e+06
5e+06
5e+06
5e+06
5e+06
5e+06
5e+06
5e+06
5e+06
5e+06
5e+06
5e+06
5e+06
5e+06
5e+06
5e+06
5e+06
5e+06
5e+06
5e+06
5e+06
5e+06
5e+06
5e+06
5e+06
5e+06
5e+06
5e+06
5e+06
5e+06
5e+06
5e+06
5e+06
5e+06
5e+06
5e+06
5e+06
5e+06
5e+06
5e+06
5e+06
5e+06
5e+06
5e+06
5e+06
5e+06
5e+06
5e+06
5e+06
5e+06
5e+06
5e+06
5e+06
5e+06
5e+06
5e+06
5e+06
5e+06
5e+06
5e+06
5e+06
5e+06
5e+06
5e+06
5e+06
5e+06
5e+06
5e+06
5e+06
5e+06
5e+06
5e+06
5e+06
5e+06
5e+06
5e+06
5e+06
5e+06
5e+06
5e+06
5e+06
5e+06
5e+06
5e+06
5e+06
5e+06
5e+06
5e+06
5e+06
5e+06
5e+06
5e+06
5e+06
5e+06
5e+06
5e+06
5e+06
5e+06
5e+06
5e+06
5e+06
5e+06
5e+06
5e+06
5e+06
5e+06
5e+06
5e+06
5e+06
5e+06
5e+06
5e+06
5e+06
5e+06
5e+06
5e+06
5e+06
5e+06
5e+06
5e+06
5e+06
5e+06
5e+06
5e+06
5e+06
5e+06
5e+06
5e+06
5e+06
5e+06
5e+06
5e+06
5e+06
5e+06
5e+06
5e+06
5e+06
5e+06
5e+06
5e+06
5e+06
5e+06
5e+06
5e+06
5e+06
5e+06
5e+06
5e+06
5e+06
5e+06
5e+06
5e+06
5e+06
5e+06
5e+06
5e+06
5e+06
5e+06
5e+06
5e+06
5e+06
5e+06
5e+06
5e+06
5e+06
5e+06
5e+06
5e+06
5e+06
5e+06
5e+06
5e+06
5e+06
5e+06
5e+06
5e+06
5e+06
5e+06
5e+06
5e+06
5e+06
5e+06
5e+06
5e+06
5e+06
5e+06
5e+06
5e+06
5e+06
5e+06
5e+06
5e+06
5e+06
5e+06
5e+06
5e+06
5e+06
5e+06
5e+06
5e+06
5e+06
5e+06
5e+06
5e+06
5e+06
5e+06
5e+06
5e+06
5e+06
5e+06
5e+06
5e+06
5e+06
5e+06
5e+06
5e+06
5e+06
5e+06
5e+06
5e+06
5e+06
5e+06
5e+06
5e+06
5e+06
5e+06
5e+06
5e+06
5e+06
5e+06
5e+06
5e+06
5e+06
5e+06
5e+06
5e+06
5e+06
5e+06
5e+06
5e+06
5e+06
5e+06
4.99999e+06
4.99999e+06
4.99999e+06
4.99998e+06
4.99998e+06
4.99997e+06
4.99996e+06
4.99994e+06
4.99992e+06
4.99989e+06
4.99985e+06
4.9998e+06
4.99974e+06
4.99965e+06
4.99954e+06
4.99939e+06
4.99921e+06
4.99898e+06
4.99869e+06
4.99833e+06
4.99788e+06
4.99733e+06
4.99667e+06
4.99586e+06
4.9949e+06
4.99376e+06
4.99242e+06
4.99085e+06
4.98903e+06
4.98694e+06
4.98455e+06
4.98184e+06
4.9788e+06
4.9754e+06
4.97162e+06
4.96747e+06
4.96293e+06
4.95799e+06
4.95265e+06
4.94693e+06
4.94082e+06
4.93433e+06
4.92749e+06
4.92029e+06
4.91277e+06
4.90495e+06
4.89684e+06
4.88846e+06
4.87985e+06
4.87101e+06
4.86199e+06
4.85279e+06
4.84345e+06
4.83397e+06
4.82439e+06
4.81471e+06
4.80495e+06
4.79513e+06
4.78526e+06
4.77535e+06
4.76541e+06
4.75545e+06
4.74548e+06
4.73549e+06
4.72551e+06
4.71553e+06
4.70555e+06
4.69557e+06
4.68561e+06
4.67566e+06
4.66572e+06
4.65579e+06
4.64587e+06
4.63597e+06
4.62608e+06
4.6162e+06
4.60633e+06
4.59648e+06
4.58664e+06
4.57681e+06
4.567e+06
4.55719e+06
4.5474e+06
4.53761e+06
4.52784e+06
4.51807e+06
4.50831e+06
4.49856e+06
4.48881e+06
4.47907e+06
4.46934e+06
4.45962e+06
4.44989e+06
4.44018e+06
4.43047e+06
4.42076e+06
4.41105e+06
4.40135e+06
4.39165e+06
4.38195e+06
4.37225e+06
4.36255e+06
4.35286e+06
4.34316e+06
4.33347e+06
4.32377e+06
4.31408e+06
4.30438e+06
4.29468e+06
4.28499e+06
4.27529e+06
4.26559e+06
4.25589e+06
4.24619e+06
4.23648e+06
4.22678e+06
4.21707e+06
4.20736e+06
4.19765e+06
4.18794e+06
4.17823e+06
4.16852e+06
4.1588e+06
4.14908e+06
4.13936e+06
4.12963e+06
4.11991e+06
4.11018e+06
4.10045e+06
4.09071e+06
4.08097e+06
4.07123e+06
4.06148e+06
4.05173e+06
4.04197e+06
4.0322e+06
4.02243e+06
4.01266e+06
4.00287e+06
3.99308e+06
3.98328e+06
3.97347e+06
3.96366e+06
3.95383e+06
3.94399e+06
3.93415e+06
3.92429e+06
3.91442e+06
3.90454e+06
3.89465e+06
3.88474e+06
3.87482e+06
3.86489e+06
3.85494e+06
3.84498e+06
3.835e+06
3.82501e+06
3.815e+06
3.80498e+06
3.79494e+06
3.78488e+06
3.7748e+06
3.7647e+06
3.75459e+06
3.74445e+06
3.7343e+06
3.72412e+06
3.71392e+06
3.7037e+06
3.69345e+06
3.68318e+06
3.67289e+06
3.66257e+06
3.65222e+06
3.64185e+06
3.63146e+06
3.62104e+06
3.61061e+06
3.60017e+06
3.58972e+06
3.5793e+06
3.56892e+06
3.55857e+06
3.54823e+06
3.5379e+06
3.52754e+06
3.51716e+06
3.50676e+06
3.49634e+06
3.4859e+06
3.47546e+06
3.46501e+06
3.45456e+06
3.4441e+06
3.43363e+06
3.42314e+06
3.41265e+06
3.40214e+06
3.39164e+06
3.38112e+06
3.37061e+06
3.36008e+06
3.34954e+06
3.33901e+06
3.32847e+06
3.31794e+06
3.30738e+06
3.29682e+06
3.28627e+06
3.2757e+06
3.26513e+06
3.25457e+06
3.244e+06
3.23343e+06
3.22286e+06
3.2123e+06
3.20173e+06
3.19117e+06
3.18061e+06
3.17005e+06
3.1595e+06
3.14895e+06
3.13841e+06
3.12787e+06
3.11734e+06
3.10682e+06
3.09631e+06
3.08581e+06
3.07533e+06
3.06485e+06
3.05439e+06
3.04394e+06
3.03351e+06
3.02309e+06
3.0127e+06
3.00232e+06
2.99196e+06
2.98163e+06
2.97132e+06
2.96104e+06
2.95078e+06
2.94055e+06
2.93036e+06
2.92019e+06
2.91006e+06
2.89997e+06
2.88992e+06
2.87992e+06
2.86996e+06
2.86004e+06
2.85018e+06
2.84038e+06
2.83064e+06
2.82096e+06
2.81134e+06
2.80179e+06
2.79232e+06
2.78293e+06
2.77361e+06
2.76439e+06
2.75527e+06
2.74625e+06
2.73734e+06
2.72855e+06
2.71988e+06
2.71134e+06
2.70293e+06
2.69467e+06
2.68655e+06
2.67859e+06
2.67078e+06
2.66314e+06
2.65567e+06
2.64835e+06
2.64118e+06
2.63411e+06
2.62707e+06
2.61966e+06
2.61144e+06
)
;

boundaryField
{
    sideLeft
    {
        type            symmetryPlane;
    }
    sideRight
    {
        type            myWaveTransmissive;
        phi             phi.air;
        rho             rho.air;
        psi             thermo:psi.air;
        gamma           1.4;
        fieldInf        100000;
        lInf            10;
        value           uniform 2.60556e+06;
    }
    topbottom
    {
        type            empty;
    }
    frontback
    {
        type            empty;
    }
}


// ************************************************************************* //
