/*--------------------------------*- C++ -*----------------------------------*\
| =========                 |                                                 |
| \\      /  F ield         | OpenFOAM: The Open Source CFD Toolbox           |
|  \\    /   O peration     | Version:  2.4.0                                 |
|   \\  /    A nd           | Web:      www.OpenFOAM.org                      |
|    \\/     M anipulation  |                                                 |
\*---------------------------------------------------------------------------*/
FoamFile
{
    version     2.0;
    format      ascii;
    class       surfaceScalarField;
    location    "0.08";
    object      phi;
}
// * * * * * * * * * * * * * * * * * * * * * * * * * * * * * * * * * * * * * //

dimensions      [0 3 -1 0 0 0 0];

internalField   nonuniform List<scalar> 
999
(
-2.28677e-13
-8.70055e-13
-1.04733e-12
-7.01118e-13
-1.29518e-12
-1.58095e-12
-2.30949e-12
-2.96395e-12
-1.7072e-12
-2.73708e-12
-1.90733e-12
-2.76468e-12
-2.99971e-12
-2.33913e-12
-2.48681e-12
-1.81412e-12
-2.4159e-12
-2.90978e-12
-2.41396e-12
-2.84096e-12
-3.43047e-12
-3.37606e-12
-2.04576e-12
-2.15026e-12
-2.5636e-12
-4.30699e-12
-3.91932e-12
-4.85978e-12
-3.87718e-12
-3.74798e-12
-3.64368e-12
-4.38417e-12
-3.74503e-12
-2.66466e-12
-2.1422e-12
-2.67979e-12
-3.16424e-12
-1.91095e-12
-1.95324e-12
-2.00029e-12
-2.62372e-12
-1.4851e-12
-2.27872e-13
-1.70841e-13
-4.16514e-13
-2.84217e-14
6.12307e-13
4.1764e-13
6.27775e-13
1.99839e-12
9.55801e-13
1.20771e-12
2.19691e-12
2.61293e-12
1.46841e-12
1.96183e-12
1.77367e-12
2.11782e-12
9.85166e-13
-1.07843e-13
-4.22234e-13
-2.13626e-13
-1.02116e-14
-3.36803e-13
-8.6662e-13
-2.57792e-12
-1.77851e-12
-1.72526e-12
-9.25003e-13
-3.28861e-13
2.45255e-13
6.86906e-13
1.20798e-12
5.24159e-13
3.42098e-13
9.49778e-14
1.4652e-12
5.59998e-13
1.38328e-12
1.38745e-13
-5.02629e-13
-6.63147e-13
1.56319e-13
7.10546e-14
-1.2833e-12
-2.09468e-12
-2.11198e-12
-1.39622e-12
-5.40012e-13
2.55795e-13
7.83807e-13
5.99464e-13
-2.97201e-13
-1.22678e-12
1.84741e-13
9.03752e-13
8.5182e-13
9.49281e-13
1.68441e-12
1.62077e-12
1.05602e-12
-4.12115e-13
-2.05617e-13
-4.51247e-13
-1.59136e-12
-2.97076e-12
-3.36422e-12
-3.92285e-12
-2.99337e-12
-2.98168e-12
-9.92188e-13
-9.56354e-13
-1.36288e-12
-1.65752e-12
-2.03331e-12
-2.40694e-12
-2.47715e-12
-2.37853e-12
-2.84602e-12
-2.49971e-12
-3.82191e-12
-3.23078e-12
-3.27263e-12
-2.91219e-12
-2.99092e-12
-2.53267e-12
-3.59878e-12
-2.98091e-12
-2.94403e-12
-1.59529e-12
-2.62649e-12
-1.25152e-12
7.48757e-13
5.22234e-13
2.35162e-14
-2.65053e-13
-3.68071e-13
4.26079e-13
2.86056e-13
1.3208e-12
9.46696e-13
6.82149e-13
8.95984e-13
-2.70006e-13
1.72178e-13
5.24139e-15
-1.20303e-12
7.26855e-13
9.76663e-13
5.44477e-13
-8.52649e-14
-8.31894e-13
-1.34063e-12
-1.05395e-12
-8.67514e-13
-2.73048e-12
-1.83375e-12
-2.81942e-12
-1.34824e-12
-2.21005e-12
-1.4439e-12
-1.93351e-12
-1.30595e-12
-7.44845e-13
1.13727e-12
6.62413e-13
-5.8719e-13
-7.37613e-13
-1.73329e-12
-1.28261e-12
1.13421e-12
1.10546e-12
7.42486e-13
1.14131e-12
4.68958e-13
-1.22213e-12
-1.97282e-12
-8.366e-13
-1.1498e-12
-5.50687e-13
4.26325e-14
4.2533e-13
6.07467e-13
-7.95583e-13
1.56319e-13
3.53778e-13
1.23403e-12
2.19635e-12
2.90431e-12
2.52255e-12
1.12451e-12
5.44807e-13
1.49683e-12
2.10557e-12
9.71252e-13
1.3589e-12
6.13912e-13
4.15538e-13
1.12507e-12
1.13981e-12
1.243e-12
2.66822e-13
-3.06254e-13
-2.47768e-12
-3.02758e-12
-3.7601e-12
-4.64278e-12
-3.61239e-12
-7.3493e-13
-8.84701e-13
-4.04164e-13
-1.31769e-13
-2.5066e-13
-5.25802e-13
-1.27155e-12
-1.1991e-12
-1.74674e-12
-1.00014e-12
-1.06689e-12
-8.54545e-13
-2.57386e-12
-1.64002e-12
-2.38985e-12
-1.22223e-12
-1.42688e-12
-7.26931e-13
-9.94754e-14
3.85161e-13
-3.06437e-13
-8.57641e-13
-2.12793e-12
-2.71015e-12
-2.08709e-12
-2.80811e-12
-3.21043e-12
-3.79408e-12
-2.07114e-12
-2.21344e-12
-2.17671e-12
-2.80928e-12
-1.33005e-12
-2.42068e-12
-2.66988e-12
-3.54541e-12
-4.04227e-12
-3.23782e-12
-2.08915e-12
-1.36718e-12
-8.20564e-13
-3.79682e-13
7.36769e-13
6.5155e-13
1.12011e-12
1.75806e-12
1.41719e-12
2.63467e-12
2.97666e-12
2.47518e-12
2.99241e-12
3.76542e-12
3.49548e-12
3.50436e-12
2.7344e-12
2.7476e-12
1.86858e-12
2.32642e-12
2.06236e-12
1.46703e-12
2.27506e-12
1.92101e-12
2.82395e-12
2.34583e-12
1.73193e-12
1.48473e-12
8.24741e-13
1.75561e-12
2.17875e-12
3.17827e-12
3.16476e-12
1.92599e-12
2.33686e-12
1.93764e-12
1.11197e-12
9.03095e-14
-7.5404e-14
-3.87113e-13
-4.40537e-13
-8.64809e-14
2.64445e-13
7.6644e-13
1.24315e-12
2.44709e-12
1.76465e-12
1.77634e-12
2.13227e-12
1.64078e-12
1.90546e-12
1.86158e-12
1.10243e-12
1.29819e-12
2.41584e-13
-9.94755e-14
-1.40381e-12
-1.353e-12
-1.3908e-12
-4.29749e-13
-5.37652e-13
-9.53085e-13
-8.33578e-13
-5.72862e-14
-1.00823e-12
-3.47961e-13
-7.03167e-13
-2.02426e-12
-6.46029e-13
-1.93426e-12
-2.57559e-12
-9.22049e-13
1.56319e-13
-5.04514e-13
-9.91227e-16
3.74204e-13
5.82645e-13
1.34523e-12
1.91323e-12
1.19018e-12
5.14205e-13
7.3018e-13
1.06417e-12
1.19625e-12
1.7608e-12
1.23669e-12
1.44575e-12
2.19482e-12
1.34266e-12
1.83784e-13
4.36583e-14
1.02181e-12
-2.72596e-13
-9.15998e-13
-2.75238e-13
-5.8692e-13
-1.30163e-12
-3.41594e-13
-8.58803e-13
-9.83881e-13
9.9476e-14
6.40842e-13
4.40536e-13
1.03054e-12
1.56884e-12
8.08507e-13
1.31074e-12
8.76007e-13
1.88671e-12
1.55947e-12
6.81639e-13
2.84214e-14
3.49566e-13
4.36023e-13
8.22388e-13
-1.99003e-14
1.94328e-13
9.81644e-13
6.54456e-13
1.75686e-12
1.15366e-12
-2.67586e-13
-4.75649e-13
2.55184e-13
-2.85214e-13
-4.12761e-13
-1.19791e-12
-6.25277e-13
3.86631e-13
4.38893e-13
-8.51433e-13
-1.51614e-12
-5.50577e-13
-2.55795e-13
-4.56946e-13
-7.18806e-14
2.84154e-12
1.85098e-12
1.64462e-12
1.12274e-12
1.63412e-12
1.89468e-12
9.75552e-13
1.16954e-12
2.05176e-12
1.95686e-12
2.03895e-12
9.30409e-13
-5.68435e-14
3.17417e-14
3.05634e-13
1.12322e-12
8.97006e-14
2.02685e-12
2.1316e-12
1.62154e-12
2.37734e-12
2.11578e-12
6.28213e-13
3.90417e-13
9.96547e-13
1.01963e-12
-4.67153e-13
7.05169e-13
1.15027e-13
2.55398e-13
7.79063e-13
8.48026e-13
4.26327e-14
9.06867e-13
1.45905e-12
2.19537e-12
2.55796e-13
-3.77864e-14
-1.42108e-13
4.2083e-13
1.17156e-12
1.22173e-12
2.23848e-12
2.88835e-12
1.94206e-12
2.04825e-12
3.26049e-12
2.76021e-12
2.30863e-12
1.95498e-12
3.41913e-12
2.6626e-12
1.76908e-12
1.86167e-12
1.26331e-12
2.44954e-12
3.26796e-12
5.00747e-12
5.37229e-12
5.04194e-12
5.12108e-12
4.00015e-12
2.93408e-12
2.37834e-12
2.00332e-12
1.87751e-12
1.16749e-12
1.61466e-12
8.91997e-13
-9.08894e-13
-1.46906e-12
-1.80862e-12
-2.16724e-12
-2.19822e-12
-1.31613e-12
-6.15469e-13
-1.62403e-12
-1.6087e-12
-8.91401e-13
-6.78336e-13
-2.96918e-13
2.84849e-13
1.11608e-12
1.89186e-12
1.84021e-12
1.29794e-12
5.68466e-13
8.45402e-13
1.79441e-12
1.57532e-12
1.34311e-12
1.58177e-12
1.29827e-12
3.43319e-13
-5.96856e-13
-2.03231e-13
1.76194e-13
-2.70006e-13
-8.63058e-13
-9.13555e-13
-1.2588e-12
-1.12387e-12
-1.69593e-12
-1.98637e-12
-1.69046e-12
-1.03682e-12
-7.68495e-13
3.18731e-13
5.60878e-13
1.59422e-12
1.46898e-12
1.28012e-12
3.65566e-13
1.64092e-12
1.4747e-12
2.47344e-12
3.58652e-12
2.53641e-12
1.84507e-12
1.19582e-12
3.10323e-13
2.32492e-12
2.15943e-12
2.84756e-12
2.58391e-12
3.07912e-12
2.69712e-12
2.48396e-12
1.61516e-12
1.0808e-12
1.37193e-12
6.97773e-13
6.51656e-13
4.45598e-13
4.29176e-14
-2.84222e-14
-7.01808e-13
-5.14568e-13
-2.23684e-12
-2.6367e-12
-1.29763e-12
-1.1873e-12
-9.21292e-14
4.79416e-13
7.24754e-13
1.79673e-12
1.01892e-12
3.27327e-13
2.70006e-13
4.26328e-14
5.57813e-13
1.46969e-12
1.29301e-13
-3.40064e-13
-9.62687e-13
-1.66243e-12
-2.59665e-12
-5.31266e-13
-2.53748e-12
-7.59147e-13
-1.28509e-12
-2.62036e-12
-3.47799e-12
-2.8977e-12
-1.87739e-12
-2.2822e-12
-1.33536e-12
-1.85864e-12
-2.09053e-12
-2.99605e-12
-2.24693e-12
-1.01005e-12
-2.77371e-13
-1.45964e-12
-1.28056e-12
-5.11259e-13
-1.21523e-12
-4.45886e-13
-9.07995e-13
-9.51183e-13
-1.35667e-12
6.93021e-13
1.24355e-12
7.10542e-14
1.54404e-14
8.75531e-13
5.08625e-13
2.04265e-12
1.91807e-12
1.55763e-12
1.31434e-12
1.79679e-12
1.42665e-12
2.5231e-12
2.14075e-12
1.68581e-12
9.99096e-13
1.1669e-12
1.07309e-12
7.2146e-13
3.83693e-13
7.51017e-13
1.05764e-12
1.81451e-12
4.18694e-12
3.72492e-12
3.78961e-12
2.33546e-12
1.86911e-12
9.60887e-13
9.94761e-14
-9.23224e-13
-2.24685e-12
-4.62215e-12
-4.03154e-12
-4.1425e-12
-4.66739e-12
-5.28435e-12
-4.36432e-12
-4.05049e-12
-2.22395e-12
-2.24306e-12
-9.43779e-13
-7.80555e-13
-3.79264e-13
-6.6791e-13
1.81704e-13
-1.69534e-13
-4.34137e-13
-3.4106e-13
-8.22091e-13
-1.62771e-12
-2.25402e-12
-1.85106e-12
-1.1373e-12
-5.70366e-13
-3.69482e-13
-6.31018e-13
-1.16657e-12
-4.05026e-13
-1.13689e-12
-4.29279e-13
-1.35972e-12
-1.91156e-12
-2.63414e-12
-3.69317e-12
-2.7777e-12
-3.16234e-12
-3.13252e-12
-3.27441e-12
-2.46131e-12
-2.27764e-12
-9.94191e-13
-1.20928e-12
-1.24168e-12
-2.18182e-12
-3.92756e-12
-3.76839e-12
-3.08995e-12
-2.17434e-12
-2.34891e-12
-2.66278e-12
-3.51956e-12
-2.58427e-12
-2.19358e-12
-7.16029e-13
-1.1032e-12
-8.0759e-13
-6.13565e-13
-1.13954e-12
-5.98594e-13
-9.02674e-13
-7.42028e-13
-1.86292e-12
-1.85955e-12
-3.15624e-12
-4.4538e-12
-3.8647e-12
-3.63314e-12
-2.96283e-12
-3.75105e-12
-2.90498e-12
-2.3948e-12
-3.02617e-12
-2.92194e-12
-3.17965e-12
-3.44517e-12
-2.94029e-12
-2.64184e-12
-1.66383e-12
-1.75931e-12
-1.58483e-12
-8.35839e-13
5.4082e-13
2.40563e-12
2.74833e-12
3.06689e-12
5.90538e-12
8.73303e-12
1.24018e-11
1.78719e-11
2.93364e-11
4.66856e-11
7.73225e-11
1.29554e-10
2.1978e-10
3.73098e-10
6.3397e-10
1.07205e-09
1.80824e-09
3.03588e-09
5.0774e-09
8.45006e-09
1.39988e-08
2.30811e-08
3.78681e-08
6.18202e-08
1.00423e-07
1.62313e-07
2.61019e-07
4.17607e-07
6.64695e-07
1.05249e-06
1.65782e-06
2.59752e-06
4.04821e-06
6.27528e-06
9.67492e-06
1.48349e-05
2.26219e-05
3.43047e-05
5.173e-05
7.7566e-05
0.000115643
0.000171423
0.000252634
0.000370143
0.000539113
0.000780546
0.00112332
0.00160685
0.00228446
0.00322784
0.00453246
0.0063245
0.00876934
0.0120818
0.0165386
0.0224927
0.0303908
0.0407922
0.0543907
0.0720383
0.0947711
0.123835
0.160712
0.207145
0.265164
0.337096
0.425585
0.533591
0.664385
0.821532
1.00886
1.23041
1.49039
1.79311
2.14287
2.5439
3.00028
3.5158
4.0939
4.73757
5.4493
6.23097
7.08385
8.00854
9.00498
10.0725
11.2096
12.4145
13.6847
15.0173
16.4089
17.8559
19.3545
20.9007
22.4904
24.1196
25.7843
27.4806
29.2049
30.9536
32.7236
34.5118
36.3156
38.1325
39.9604
41.7974
43.6419
45.4924
47.3478
49.2071
51.0694
52.9341
54.8006
56.6686
58.5378
60.4078
62.2786
64.1501
66.0221
67.8947
69.7679
71.6417
73.5162
75.3914
77.2674
79.1443
81.0223
82.9013
84.7816
86.6632
88.5463
90.431
92.3173
94.2055
96.0955
97.9877
99.8819
101.778
103.677
105.579
107.483
109.39
111.299
113.212
115.127
117.046
118.968
120.893
122.821
124.753
126.689
128.628
130.57
132.517
134.467
136.421
138.379
140.341
142.307
144.277
146.251
148.229
150.211
152.198
154.188
156.183
158.182
160.186
162.194
164.206
166.223
168.244
170.27
172.3
174.336
176.376
178.421
180.472
182.527
184.588
186.655
188.727
190.804
192.888
194.977
197.072
199.174
201.282
203.396
205.517
207.645
209.78
211.922
214.071
216.227
218.391
220.563
222.743
224.93
227.125
229.329
231.541
233.762
235.992
238.23
240.478
242.734
245.001
247.276
249.562
251.858
254.164
256.48
258.807
261.145
263.494
265.855
268.228
270.612
273.009
275.418
277.84
280.273
282.718
285.167
287.516
289.86
292.206
294.556
296.91
299.27
301.636
304.01
306.39
308.776
311.169
313.566
315.969
318.377
320.79
323.208
325.632
328.06
330.494
332.932
335.375
337.821
340.273
342.727
345.186
347.649
350.116
352.585
355.061
357.542
360.026
362.51
364.998
367.49
369.985
372.481
374.98
377.482
379.986
382.492
384.999
387.508
390.018
392.529
395.04
397.553
400.065
402.578
405.09
407.602
410.112
412.622
415.13
417.636
420.139
422.64
425.138
427.632
430.122
432.607
435.088
437.562
440.031
442.493
444.948
447.394
449.832
452.26
454.677
457.082
459.474
461.853
464.217
466.566
468.897
471.21
473.504
475.777
478.028
480.255
482.455
484.625
486.765
488.872
490.944
492.978
494.975
496.929
498.841
500.706
502.525
504.291
506.007
507.668
509.28
510.843
512.168
513.976
516.923
)
;

boundaryField
{
    sideLeft
    {
        type            symmetryPlane;
        value           uniform 0;
    }
    sideRight
    {
        type            calculated;
        value           uniform 520.417;
    }
    topbottom
    {
        type            empty;
        value           nonuniform 0();
    }
    frontback
    {
        type            empty;
        value           nonuniform 0();
    }
}


// ************************************************************************* //
