/*--------------------------------*- C++ -*----------------------------------*\
| =========                 |                                                 |
| \\      /  F ield         | OpenFOAM: The Open Source CFD Toolbox           |
|  \\    /   O peration     | Version:  2.4.0                                 |
|   \\  /    A nd           | Web:      www.OpenFOAM.org                      |
|    \\/     M anipulation  |                                                 |
\*---------------------------------------------------------------------------*/
FoamFile
{
    version     2.0;
    format      ascii;
    class       surfaceScalarField;
    location    "0.08";
    object      phi.water;
}
// * * * * * * * * * * * * * * * * * * * * * * * * * * * * * * * * * * * * * //

dimensions      [0 3 -1 0 0 0 0];

internalField   nonuniform List<scalar> 
999
(
-1.30345e-15
-9.83742e-13
-9.33647e-13
-5.30588e-13
-1.01096e-12
-2.09254e-12
-2.30949e-12
-2.62289e-12
-1.93458e-12
-2.90761e-12
-1.96418e-12
-2.82152e-12
-3.17024e-12
-1.7707e-12
-3.05525e-12
-1.81412e-12
-2.52959e-12
-2.39819e-12
-2.52764e-12
-3.01149e-12
-3.31678e-12
-3.20553e-12
-2.10261e-12
-1.63867e-12
-3.30257e-12
-4.02278e-12
-4.14669e-12
-4.85978e-12
-3.82034e-12
-3.80483e-12
-3.58684e-12
-3.75889e-12
-4.25662e-12
-2.89204e-12
-2.31273e-12
-2.85032e-12
-2.82318e-12
-2.08148e-12
-1.78271e-12
-2.00029e-12
-2.73741e-12
-1.08719e-12
-3.98402e-13
-2.27685e-13
-5.87044e-13
2.55795e-13
2.14403e-13
4.74483e-13
5.70932e-13
1.82786e-12
1.3537e-12
1.15087e-12
2.14006e-12
2.61293e-12
1.86631e-12
1.50708e-12
1.94421e-12
2.23151e-12
7.00948e-13
1.76374e-13
-5.35921e-13
-3.27313e-13
5.58223e-13
-6.2102e-13
-1.03715e-12
-2.6916e-12
-1.77851e-12
-1.72526e-12
-9.81847e-13
-4.42548e-13
4.15785e-13
5.16376e-13
1.37851e-12
4.10472e-13
1.14724e-13
5.49725e-13
1.12414e-12
7.87372e-13
1.15591e-12
4.79806e-13
-5.59472e-13
-6.06304e-13
4.26323e-14
-4.26323e-14
-1.11277e-12
-2.15153e-12
-2.16883e-12
-1.6236e-12
-3.69482e-13
4.83169e-13
7.83808e-13
7.13151e-13
-3.54045e-13
-1.28362e-12
7.10537e-14
8.46908e-13
8.5182e-13
1.00612e-12
1.91178e-12
1.16603e-12
9.42332e-13
-1.84741e-13
-1.48773e-13
-5.08091e-13
-1.47767e-12
-2.91392e-12
-3.5916e-12
-3.80916e-12
-2.82284e-12
-2.58377e-12
-1.73115e-12
-8.42668e-13
-1.19235e-12
-1.94174e-12
-1.86278e-12
-2.57747e-12
-2.87505e-12
-2.32168e-12
-2.44811e-12
-2.38602e-12
-3.82191e-12
-3.11709e-12
-3.15894e-12
-3.02588e-12
-3.16145e-12
-2.7032e-12
-3.42825e-12
-3.32197e-12
-2.54612e-12
-1.82266e-12
-2.28543e-12
-1.70627e-12
6.91914e-13
8.06451e-13
3.64577e-13
-4.35583e-13
-4.81758e-13
3.69236e-13
3.429e-13
1.54817e-12
8.33009e-13
6.25305e-13
7.25454e-13
-2.13163e-13
5.84909e-14
5.24139e-15
-8.61967e-13
4.42638e-13
1.09035e-12
4.87633e-13
1.42109e-13
-1.00242e-12
-1.22694e-12
-9.40263e-13
-1.54964e-12
-2.44626e-12
-1.72006e-12
-2.98995e-12
-1.6893e-12
-1.52793e-12
-1.38706e-12
-1.87666e-12
-1.64701e-12
-4.60628e-13
7.96214e-13
4.91882e-13
-4.73503e-13
-4.53396e-13
-1.96066e-12
-6.00484e-13
3.38399e-13
1.27599e-12
7.42486e-13
1.08447e-12
4.12115e-13
-8.81073e-13
-1.85913e-12
-1.12082e-12
-1.09295e-12
-7.21218e-13
-7.10543e-14
4.82173e-13
5.50624e-13
-5.68209e-13
-1.84741e-13
5.24309e-13
8.36124e-13
2.70794e-12
2.67693e-12
2.63624e-12
1.57926e-12
2.03746e-13
1.38314e-12
1.76451e-12
1.71022e-12
9.04151e-13
6.13912e-13
8.13442e-13
1.01139e-12
9.12436e-13
1.29984e-12
3.23665e-13
-3.06254e-13
-2.30715e-12
-2.97074e-12
-3.87379e-12
-4.18803e-12
-3.38501e-12
-1.13283e-12
-7.14171e-13
-9.15755e-13
-1.80823e-14
-1.36973e-13
-5.82645e-13
-1.04418e-12
-1.48332e-12
-1.23515e-12
-1.17067e-12
-1.23742e-12
-1.30929e-12
-1.94858e-12
-1.8674e-12
-2.21932e-12
-1.50645e-12
-1.37003e-12
-6.13244e-13
2.98429e-13
2.1463e-13
-7.04341e-13
-7.43954e-13
-2.3553e-12
-2.19856e-12
-2.08709e-12
-2.86495e-12
-3.26727e-12
-4.24883e-12
-1.78693e-12
-2.09975e-12
-2.57462e-12
-2.41138e-12
-1.50058e-12
-2.42068e-12
-2.78357e-12
-3.77279e-12
-3.58753e-12
-3.18097e-12
-1.74809e-12
-1.36718e-12
-8.77408e-13
-4.36525e-13
3.95708e-13
1.1063e-12
1.17695e-12
1.58753e-12
1.13297e-12
2.63467e-12
2.91982e-12
2.70255e-12
2.99241e-12
3.82226e-12
3.66601e-12
3.33383e-12
2.67756e-12
2.7476e-12
1.58437e-12
2.21273e-12
2.28974e-12
1.75124e-12
1.99084e-12
1.86417e-12
2.99448e-12
2.5732e-12
1.73193e-12
1.48473e-12
8.81585e-13
1.8693e-12
2.17875e-12
2.9509e-12
2.59632e-12
2.26705e-12
2.33686e-12
1.99448e-12
9.9828e-13
9.03095e-14
9.51263e-14
-3.3027e-13
-6.11067e-13
-1.43324e-13
2.07601e-13
6.52753e-13
1.35683e-12
2.56078e-12
2.04887e-12
1.89003e-12
1.67752e-12
1.81131e-12
2.01915e-12
1.86158e-12
8.75057e-13
1.1845e-12
3.55271e-13
-3.26849e-13
-1.23328e-12
-9.551e-13
-1.10658e-12
-6.57123e-13
-4.80808e-13
-1.18046e-12
-7.76735e-13
-5.12034e-13
-4.96639e-13
-5.18491e-13
-7.60011e-13
-1.6832e-12
-1.44184e-12
-1.70688e-12
-2.23453e-12
-1.31995e-12
3.83693e-13
-5.04514e-13
-9.91226e-16
8.99873e-14
8.66862e-13
1.23154e-12
1.91323e-12
9.0596e-13
6.27892e-13
9.0071e-13
9.5048e-13
1.19625e-12
1.7608e-12
1.40722e-12
1.78681e-12
1.56954e-12
7.17383e-13
4.68001e-13
6.12092e-13
2.82846e-13
-4.52223e-14
-5.74937e-13
-3.32082e-13
-7.00607e-13
-1.24479e-12
-3.98437e-13
-7.45116e-13
-6.99664e-13
-1.84741e-13
5.83998e-13
6.11066e-13
9.73697e-13
1.45515e-12
1.03588e-12
8.55997e-13
8.76007e-13
2.28461e-12
1.21841e-12
8.52169e-13
-8.52654e-14
1.22192e-13
7.77084e-13
7.65545e-13
3.2116e-13
8.06407e-14
8.67957e-13
1.16605e-12
1.4158e-12
1.09681e-12
-1.53899e-13
-3.05119e-13
8.46536e-14
-1.71527e-13
-1.32226e-12
-8.00008e-13
-3.4106e-13
2.161e-13
4.95736e-13
-7.94589e-13
-1.62983e-12
-6.0742e-13
-8.52652e-14
-7.41163e-13
-1.50372e-14
3.01207e-12
2.1352e-12
1.36041e-12
1.00905e-12
1.8615e-12
2.12205e-12
8.05022e-13
8.85319e-13
2.16545e-12
2.07054e-12
2.26632e-12
4.75662e-13
1.13687e-13
-2.51018e-14
2.4879e-13
9.52691e-13
5.44448e-13
1.91316e-12
1.84738e-12
1.90576e-12
2.26365e-12
2.22946e-12
5.14526e-13
3.90417e-13
1.11023e-12
1.19016e-12
-5.23996e-13
5.34639e-13
5.81837e-14
4.25928e-13
6.08533e-13
6.77496e-13
-1.84741e-13
9.06867e-13
1.62958e-12
2.30906e-12
2.55796e-13
3.03274e-13
-1.98951e-13
2.503e-13
1.11472e-12
1.79016e-12
1.72689e-12
2.71782e-12
1.65784e-12
2.503e-12
3.08996e-12
2.8739e-12
2.25179e-12
2.18235e-12
3.19176e-12
3.00366e-12
1.42802e-12
1.91851e-12
1.09278e-12
2.33586e-12
3.32481e-12
4.95063e-12
5.08807e-12
5.26932e-12
5.12108e-12
4.34122e-12
2.76355e-12
2.20781e-12
2.34438e-12
1.59329e-12
1.50855e-12
1.38729e-12
1.00568e-12
-9.65737e-13
-1.41222e-12
-1.97915e-12
-2.22408e-12
-1.85716e-12
-1.71403e-12
-6.72312e-13
-1.33981e-12
-1.26764e-12
-1.34615e-12
-5.07805e-13
1.57829e-13
-2.83585e-13
1.05924e-12
2.17608e-12
2.18127e-12
1.18425e-12
7.38996e-13
6.18028e-13
1.22597e-12
1.8027e-12
1.4568e-12
1.63861e-12
1.24143e-12
2.25804e-15
2.84215e-14
-4.87448e-13
5.6635e-15
7.1054e-14
-9.76745e-13
-1.08409e-12
-1.14512e-12
-1.06702e-12
-1.46856e-12
-2.21374e-12
-1.91783e-12
-1.03682e-12
-9.95869e-13
4.89261e-13
2.7666e-13
1.99212e-12
8.43699e-13
1.28012e-12
9.90844e-13
1.7546e-12
1.30417e-12
2.70082e-12
3.07493e-12
2.6501e-12
1.84507e-12
8.54764e-13
4.80854e-13
2.21123e-12
2.32996e-12
2.84756e-12
2.64076e-12
3.02227e-12
2.81081e-12
2.42712e-12
1.72884e-12
1.36502e-12
1.03087e-12
5.84086e-13
4.81126e-13
2.18224e-13
3.27135e-13
-1.42109e-13
-5.31278e-13
-7.41942e-13
-2.35053e-12
-2.29564e-12
-1.24079e-12
-1.24414e-12
2.15576e-14
9.34164e-13
3.83693e-13
1.17145e-12
1.18945e-12
7.82074e-13
9.94755e-14
-1.42106e-14
2.73596e-13
1.29916e-12
5.84048e-13
-1.12691e-13
-1.36059e-12
-1.43506e-12
-2.1419e-12
-1.32707e-12
-2.08274e-12
-7.02304e-13
-1.51246e-12
-2.62036e-12
-3.19377e-12
-2.72717e-12
-2.44582e-12
-1.8843e-12
-1.61958e-12
-1.63127e-12
-2.48843e-12
-2.99605e-12
-2.19009e-12
-9.53209e-13
-6.75275e-13
-1.11858e-12
-9.9634e-13
-5.68102e-13
-6.46792e-13
-1.01432e-12
-1.07853e-12
-4.96436e-13
-1.47036e-12
3.5196e-13
1.12986e-12
3.55271e-13
1.54404e-14
7.05001e-13
7.35998e-13
1.87212e-12
1.86123e-12
1.89869e-12
9.16433e-13
1.96732e-12
1.31296e-12
2.63678e-12
2.36813e-12
1.51528e-12
1.05594e-12
1.79217e-12
5.04661e-13
6.64616e-13
5.54223e-13
5.80487e-13
1.11449e-12
1.47345e-12
3.90272e-12
4.46388e-12
3.61908e-12
2.27862e-12
1.64174e-12
1.52932e-12
1.5632e-13
-1.09375e-12
-2.58791e-12
-4.05371e-12
-4.31576e-12
-3.91513e-12
-5.29267e-12
-5.11382e-12
-4.36432e-12
-3.99365e-12
-2.11026e-12
-2.47043e-12
-1.05747e-12
-4.39495e-13
-5.49794e-13
-3.83693e-13
-1.59356e-13
2.2837e-13
-7.75198e-13
-3.4106e-13
-9.35777e-13
-1.57087e-12
-2.19718e-12
-1.85106e-12
-1.1373e-12
-7.40896e-13
-8.52644e-14
-9.72079e-13
-8.82356e-13
-6.32399e-13
-4.5477e-13
-8.84026e-13
-1.70078e-12
-1.85471e-12
-2.80467e-12
-3.18158e-12
-2.89139e-12
-2.53707e-12
-3.7578e-12
-3.55862e-12
-2.51816e-12
-1.93658e-12
-1.16472e-12
-9.81902e-13
-1.07115e-12
-2.01129e-12
-3.47282e-12
-4.10945e-12
-3.26048e-12
-2.1175e-12
-2.06469e-12
-3.11752e-12
-3.46271e-12
-2.41374e-12
-2.13673e-12
-8.29716e-13
-1.38741e-12
-7.50747e-13
-5.56721e-13
-1.08269e-12
-7.12281e-13
-7.88987e-13
-7.98872e-13
-1.63554e-12
-2.08693e-12
-3.0994e-12
-4.4538e-12
-3.8647e-12
-3.74683e-12
-3.01967e-12
-3.58052e-12
-3.13235e-12
-2.45164e-12
-2.68511e-12
-3.09247e-12
-3.40702e-12
-3.27463e-12
-2.99713e-12
-2.64184e-12
-1.66383e-12
-1.58878e-12
-1.98274e-12
-6.08466e-13
8.81881e-13
2.12142e-12
2.80518e-12
2.78268e-12
5.84854e-12
9.30146e-12
1.20607e-11
1.75309e-11
2.93364e-11
4.6572e-11
7.70383e-11
1.29269e-10
2.18416e-10
3.7145e-10
6.30446e-10
1.06711e-09
1.79988e-09
3.02184e-09
5.05392e-09
8.41232e-09
1.39375e-08
2.2982e-08
3.77085e-08
6.15662e-08
1.00018e-07
1.61674e-07
2.60016e-07
4.16038e-07
6.62256e-07
1.04872e-06
1.65203e-06
2.58867e-06
4.03477e-06
6.25499e-06
9.64446e-06
1.47895e-05
2.25545e-05
3.42054e-05
5.15845e-05
7.73543e-05
0.000115337
0.000170983
0.000252006
0.000369253
0.00053786
0.000778794
0.00112089
0.00160349
0.00227987
0.00322159
0.00452403
0.00631321
0.00875433
0.012062
0.0165126
0.0224591
0.0303475
0.0407368
0.0543205
0.0719502
0.0946614
0.123699
0.160546
0.206945
0.264923
0.336809
0.425247
0.533197
0.66393
0.821012
1.00827
1.22975
1.48966
1.79231
2.142
2.54297
2.99929
3.51476
4.09282
4.73647
5.44818
6.22984
7.08273
8.00744
9.00392
10.0714
11.2087
12.4136
13.6839
15.0166
16.4082
17.8554
19.3541
20.9003
22.4901
24.1194
25.7842
27.4805
29.2048
30.9536
32.7236
34.5119
36.3158
38.1327
39.9607
41.7977
43.6422
45.4927
47.3481
49.2074
51.0697
52.9344
54.8009
56.669
58.5381
60.4082
62.279
64.1504
66.0225
67.8951
69.7682
71.642
73.5165
75.3917
77.2677
79.1446
81.0226
82.9016
84.7819
86.6635
88.5466
90.4312
92.3176
94.2057
96.0958
97.9879
99.8822
101.779
103.678
105.579
107.483
109.39
111.299
113.212
115.127
117.046
118.968
120.893
122.821
124.753
126.689
128.628
130.571
132.517
134.467
136.421
138.379
140.341
142.307
144.277
146.251
148.229
150.212
152.198
154.189
156.183
158.182
160.186
162.194
164.206
166.223
168.244
170.27
172.301
174.336
176.376
178.422
180.472
182.528
184.589
186.655
188.727
190.804
192.888
194.977
197.072
199.174
201.282
203.396
205.517
207.645
209.78
211.922
214.071
216.228
218.392
220.563
222.743
224.93
227.126
229.329
231.542
233.762
235.992
238.23
240.478
242.735
245.001
247.277
249.562
251.858
254.164
256.48
258.807
261.145
263.495
265.855
268.228
270.612
273.009
275.418
277.84
280.273
282.719
285.167
287.516
289.86
292.206
294.556
296.91
299.27
301.636
304.01
306.39
308.776
311.169
313.566
315.969
318.377
320.79
323.208
325.632
328.06
330.494
332.932
335.375
337.821
340.273
342.727
345.186
347.649
350.116
352.585
355.061
357.542
360.026
362.51
364.998
367.49
369.985
372.481
374.98
377.482
379.986
382.492
384.999
387.508
390.018
392.529
395.04
397.553
400.065
402.578
405.09
407.602
410.113
412.622
415.13
417.636
420.139
422.64
425.138
427.632
430.122
432.607
435.088
437.562
440.031
442.493
444.948
447.395
449.832
452.26
454.677
457.082
459.474
461.853
464.217
466.566
468.897
471.21
473.504
475.777
478.028
480.255
482.455
484.625
486.765
488.872
490.944
492.978
494.975
496.929
498.841
500.706
502.525
504.291
506.007
507.668
509.281
510.844
512.171
513.983
516.921
)
;

boundaryField
{
    sideLeft
    {
        type            symmetryPlane;
        value           uniform 0;
    }
    sideRight
    {
        type            calculated;
        value           uniform 2061.28;
    }
    topbottom
    {
        type            empty;
        value           nonuniform 0();
    }
    frontback
    {
        type            empty;
        value           nonuniform 0();
    }
}


// ************************************************************************* //
