/*--------------------------------*- C++ -*----------------------------------*\
| =========                 |                                                 |
| \\      /  F ield         | OpenFOAM: The Open Source CFD Toolbox           |
|  \\    /   O peration     | Version:  2.4.0                                 |
|   \\  /    A nd           | Web:      www.OpenFOAM.org                      |
|    \\/     M anipulation  |                                                 |
\*---------------------------------------------------------------------------*/
FoamFile
{
    version     2.0;
    format      ascii;
    class       volScalarField;
    location    "0.08";
    object      pMean;
}
// * * * * * * * * * * * * * * * * * * * * * * * * * * * * * * * * * * * * * //

dimensions      [1 -1 -2 0 0 0 0];

internalField   nonuniform List<scalar> 
1000
(
5e+06
5e+06
5e+06
5e+06
5e+06
5e+06
5e+06
5e+06
5e+06
5e+06
5e+06
5e+06
5e+06
5e+06
5e+06
5e+06
5e+06
5e+06
5e+06
5e+06
5e+06
5e+06
5e+06
5e+06
5e+06
5e+06
5e+06
5e+06
5e+06
5e+06
5e+06
5e+06
5e+06
5e+06
5e+06
5e+06
5e+06
5e+06
5e+06
5e+06
5e+06
5e+06
5e+06
5e+06
5e+06
5e+06
5e+06
5e+06
5e+06
5e+06
5e+06
5e+06
5e+06
5e+06
5e+06
5e+06
5e+06
5e+06
5e+06
5e+06
5e+06
5e+06
5e+06
5e+06
5e+06
5e+06
5e+06
5e+06
5e+06
5e+06
5e+06
5e+06
5e+06
5e+06
5e+06
5e+06
5e+06
5e+06
5e+06
5e+06
5e+06
5e+06
5e+06
5e+06
5e+06
5e+06
5e+06
5e+06
5e+06
5e+06
5e+06
5e+06
5e+06
5e+06
5e+06
5e+06
5e+06
5e+06
5e+06
5e+06
5e+06
5e+06
5e+06
5e+06
5e+06
5e+06
5e+06
5e+06
5e+06
5e+06
5e+06
5e+06
5e+06
5e+06
5e+06
5e+06
5e+06
5e+06
5e+06
5e+06
5e+06
5e+06
5e+06
5e+06
5e+06
5e+06
5e+06
5e+06
5e+06
5e+06
5e+06
5e+06
5e+06
5e+06
5e+06
5e+06
5e+06
5e+06
5e+06
5e+06
5e+06
5e+06
5e+06
5e+06
5e+06
5e+06
5e+06
5e+06
5e+06
5e+06
5e+06
5e+06
5e+06
5e+06
5e+06
5e+06
5e+06
5e+06
5e+06
5e+06
5e+06
5e+06
5e+06
5e+06
5e+06
5e+06
5e+06
5e+06
5e+06
5e+06
5e+06
5e+06
5e+06
5e+06
5e+06
5e+06
5e+06
5e+06
5e+06
5e+06
5e+06
5e+06
5e+06
5e+06
5e+06
5e+06
5e+06
5e+06
5e+06
5e+06
5e+06
5e+06
5e+06
5e+06
5e+06
5e+06
5e+06
5e+06
5e+06
5e+06
5e+06
5e+06
5e+06
5e+06
5e+06
5e+06
5e+06
5e+06
5e+06
5e+06
5e+06
5e+06
5e+06
5e+06
5e+06
5e+06
5e+06
5e+06
5e+06
5e+06
5e+06
5e+06
5e+06
5e+06
5e+06
5e+06
5e+06
5e+06
5e+06
5e+06
5e+06
5e+06
5e+06
5e+06
5e+06
5e+06
5e+06
5e+06
5e+06
5e+06
5e+06
5e+06
5e+06
5e+06
5e+06
5e+06
5e+06
5e+06
5e+06
5e+06
5e+06
5e+06
5e+06
5e+06
5e+06
5e+06
5e+06
5e+06
5e+06
5e+06
5e+06
5e+06
5e+06
5e+06
5e+06
5e+06
5e+06
5e+06
5e+06
5e+06
5e+06
5e+06
5e+06
5e+06
5e+06
5e+06
5e+06
5e+06
5e+06
5e+06
5e+06
5e+06
5e+06
5e+06
5e+06
5e+06
5e+06
5e+06
5e+06
5e+06
5e+06
5e+06
5e+06
5e+06
5e+06
5e+06
5e+06
5e+06
5e+06
5e+06
5e+06
5e+06
5e+06
5e+06
5e+06
5e+06
5e+06
5e+06
5e+06
5e+06
5e+06
5e+06
5e+06
5e+06
5e+06
5e+06
5e+06
5e+06
5e+06
5e+06
5e+06
5e+06
5e+06
5e+06
5e+06
5e+06
5e+06
5e+06
5e+06
5e+06
5e+06
5e+06
5e+06
5e+06
5e+06
5e+06
5e+06
5e+06
5e+06
5e+06
5e+06
5e+06
5e+06
5e+06
5e+06
5e+06
5e+06
5e+06
5e+06
5e+06
5e+06
5e+06
5e+06
5e+06
5e+06
5e+06
5e+06
5e+06
5e+06
5e+06
5e+06
5e+06
5e+06
5e+06
5e+06
5e+06
5e+06
5e+06
5e+06
5e+06
5e+06
5e+06
5e+06
5e+06
5e+06
5e+06
5e+06
5e+06
5e+06
5e+06
5e+06
5e+06
5e+06
5e+06
5e+06
5e+06
5e+06
5e+06
5e+06
5e+06
5e+06
5e+06
5e+06
5e+06
5e+06
5e+06
5e+06
5e+06
5e+06
5e+06
5e+06
5e+06
5e+06
5e+06
5e+06
5e+06
5e+06
5e+06
5e+06
5e+06
5e+06
5e+06
5e+06
5e+06
5e+06
5e+06
5e+06
5e+06
5e+06
5e+06
5e+06
5e+06
5e+06
5e+06
5e+06
5e+06
5e+06
5e+06
5e+06
5e+06
5e+06
5e+06
5e+06
5e+06
5e+06
5e+06
5e+06
5e+06
5e+06
5e+06
5e+06
5e+06
5e+06
5e+06
5e+06
5e+06
5e+06
5e+06
5e+06
5e+06
5e+06
5e+06
5e+06
5e+06
5e+06
5e+06
5e+06
5e+06
5e+06
5e+06
5e+06
5e+06
5e+06
5e+06
5e+06
5e+06
5e+06
5e+06
5e+06
5e+06
5e+06
5e+06
5e+06
5e+06
5e+06
5e+06
5e+06
5e+06
5e+06
5e+06
5e+06
5e+06
5e+06
5e+06
5e+06
5e+06
5e+06
5e+06
5e+06
5e+06
5e+06
5e+06
5e+06
5e+06
5e+06
5e+06
5e+06
5e+06
5e+06
5e+06
5e+06
5e+06
5e+06
5e+06
5e+06
5e+06
5e+06
5e+06
5e+06
5e+06
5e+06
5e+06
5e+06
5e+06
5e+06
5e+06
5e+06
5e+06
5e+06
5e+06
5e+06
5e+06
5e+06
5e+06
5e+06
5e+06
5e+06
5e+06
5e+06
5e+06
5e+06
5e+06
5e+06
5e+06
5e+06
5e+06
5e+06
5e+06
5e+06
5e+06
5e+06
5e+06
5e+06
5e+06
5e+06
5e+06
5e+06
5e+06
5e+06
5e+06
5e+06
5e+06
5e+06
5e+06
5e+06
5e+06
5e+06
5e+06
5e+06
5e+06
5e+06
5e+06
5e+06
5e+06
5e+06
5e+06
5e+06
5e+06
5e+06
5e+06
5e+06
5e+06
5e+06
5e+06
5e+06
5e+06
5e+06
5e+06
5e+06
5e+06
5e+06
5e+06
5e+06
5e+06
5e+06
5e+06
5e+06
5e+06
5e+06
5e+06
5e+06
5e+06
5e+06
5e+06
5e+06
5e+06
5e+06
5e+06
5e+06
5e+06
5e+06
5e+06
5e+06
5e+06
5e+06
5e+06
5e+06
5e+06
5e+06
5e+06
5e+06
5e+06
5e+06
5e+06
5e+06
5e+06
5e+06
5e+06
5e+06
5e+06
5e+06
5e+06
5e+06
5e+06
5e+06
5e+06
5e+06
5e+06
5e+06
5e+06
5e+06
5e+06
5e+06
5e+06
5e+06
5e+06
5e+06
5e+06
5e+06
5e+06
5e+06
5e+06
5e+06
5e+06
5e+06
5e+06
5e+06
5e+06
5e+06
5e+06
5e+06
5e+06
5e+06
5e+06
5e+06
5e+06
5e+06
5e+06
5e+06
5e+06
5e+06
5e+06
5e+06
5e+06
5e+06
5e+06
5e+06
5e+06
5e+06
5e+06
5e+06
5e+06
5e+06
5e+06
5e+06
5e+06
5e+06
5e+06
5e+06
5e+06
5e+06
5e+06
5e+06
5e+06
5e+06
5e+06
5e+06
5e+06
5e+06
5e+06
5e+06
5e+06
5e+06
5e+06
5e+06
5e+06
5e+06
5e+06
5e+06
5e+06
5e+06
5e+06
5e+06
5e+06
5e+06
5e+06
5e+06
5e+06
5e+06
5e+06
5e+06
5e+06
5e+06
5e+06
5e+06
5e+06
5e+06
5e+06
5e+06
5e+06
5e+06
5e+06
5e+06
5e+06
5e+06
5e+06
5e+06
5e+06
5e+06
5e+06
5e+06
5e+06
5e+06
5e+06
5e+06
4.99999e+06
4.99999e+06
4.99999e+06
4.99998e+06
4.99998e+06
4.99997e+06
4.99997e+06
4.99996e+06
4.99994e+06
4.99993e+06
4.99991e+06
4.99989e+06
4.99986e+06
4.99982e+06
4.99978e+06
4.99973e+06
4.99968e+06
4.99961e+06
4.99953e+06
4.99943e+06
4.99932e+06
4.9992e+06
4.99905e+06
4.99889e+06
4.99871e+06
4.9985e+06
4.99827e+06
4.99801e+06
4.99772e+06
4.99741e+06
4.99706e+06
4.99669e+06
4.99627e+06
4.99583e+06
4.99535e+06
4.99483e+06
4.99427e+06
4.99368e+06
4.99305e+06
4.99238e+06
4.99166e+06
4.99091e+06
4.99011e+06
4.98928e+06
4.9884e+06
4.98748e+06
4.98652e+06
4.98551e+06
4.98446e+06
4.98337e+06
4.98224e+06
4.98106e+06
4.97984e+06
4.97858e+06
4.97727e+06
4.97593e+06
4.97453e+06
4.9731e+06
4.97162e+06
4.9701e+06
4.96853e+06
4.96693e+06
4.96527e+06
4.96358e+06
4.96184e+06
4.96006e+06
4.95823e+06
4.95637e+06
4.95445e+06
4.9525e+06
4.9505e+06
4.94846e+06
4.94637e+06
4.94424e+06
4.94207e+06
4.93985e+06
4.93759e+06
4.93528e+06
4.93293e+06
4.93054e+06
4.9281e+06
4.92562e+06
4.9231e+06
4.92053e+06
4.91791e+06
4.91525e+06
4.91255e+06
4.9098e+06
4.90701e+06
4.90417e+06
4.90129e+06
4.89836e+06
4.89539e+06
4.89237e+06
4.8893e+06
4.88619e+06
4.88304e+06
4.87984e+06
4.87659e+06
4.8733e+06
4.86996e+06
4.86657e+06
4.86314e+06
4.85967e+06
4.85614e+06
4.85257e+06
4.84895e+06
4.84529e+06
4.84158e+06
4.83782e+06
4.83401e+06
4.83016e+06
4.82626e+06
4.82231e+06
4.81831e+06
4.81427e+06
4.81018e+06
4.80604e+06
4.80185e+06
4.79761e+06
4.79332e+06
4.78899e+06
4.7846e+06
4.78017e+06
4.77569e+06
4.77115e+06
4.76657e+06
4.76194e+06
4.75726e+06
4.75252e+06
4.74774e+06
4.7429e+06
4.73802e+06
4.73308e+06
4.7281e+06
4.72306e+06
4.71797e+06
4.71282e+06
4.70763e+06
4.70238e+06
4.69708e+06
4.69172e+06
4.68632e+06
4.68086e+06
4.67534e+06
4.66977e+06
4.66415e+06
4.65847e+06
4.65274e+06
4.64695e+06
4.64111e+06
4.63521e+06
4.62926e+06
4.62325e+06
4.61718e+06
4.61105e+06
4.60487e+06
4.59863e+06
4.59233e+06
4.58597e+06
4.57955e+06
4.57308e+06
4.56655e+06
4.55995e+06
4.55331e+06
4.5466e+06
4.53984e+06
4.53303e+06
4.52617e+06
4.51926e+06
4.51229e+06
4.50525e+06
4.49816e+06
4.49101e+06
4.4838e+06
4.47653e+06
4.4692e+06
4.46181e+06
4.45436e+06
4.44685e+06
4.43929e+06
4.43166e+06
4.42397e+06
4.41623e+06
4.40842e+06
4.40055e+06
4.39262e+06
4.38463e+06
4.37658e+06
4.36847e+06
4.36029e+06
4.35206e+06
4.34376e+06
4.33541e+06
4.32699e+06
4.3185e+06
4.30996e+06
4.30135e+06
4.29268e+06
4.28395e+06
4.27516e+06
4.2663e+06
4.25738e+06
4.2484e+06
4.23935e+06
4.23024e+06
4.22106e+06
4.21183e+06
4.20253e+06
4.19316e+06
4.18373e+06
4.17424e+06
4.16468e+06
4.15506e+06
4.14538e+06
4.13563e+06
4.12581e+06
4.11593e+06
4.10599e+06
4.09598e+06
4.08591e+06
4.07578e+06
4.06558e+06
4.05531e+06
4.04498e+06
4.03459e+06
4.02413e+06
4.01361e+06
4.00303e+06
3.99238e+06
3.98167e+06
3.97089e+06
3.96005e+06
3.94915e+06
3.93818e+06
3.92716e+06
3.91607e+06
3.90492e+06
3.8937e+06
3.88243e+06
3.8711e+06
3.8597e+06
3.84825e+06
3.83674e+06
3.82517e+06
3.81354e+06
3.80186e+06
3.79012e+06
3.77833e+06
3.76649e+06
3.75459e+06
3.74264e+06
3.73065e+06
3.7186e+06
3.70651e+06
3.69437e+06
3.6822e+06
3.66998e+06
3.65772e+06
3.64544e+06
3.63312e+06
3.62078e+06
3.60843e+06
3.59593e+06
3.58341e+06
)
;

boundaryField
{
    sideLeft
    {
        type            symmetryPlane;
    }
    sideRight
    {
        type            calculated;
        value           uniform 3.57655e+06;
    }
    topbottom
    {
        type            empty;
    }
    frontback
    {
        type            empty;
    }
}


// ************************************************************************* //
