/*--------------------------------*- C++ -*----------------------------------*\
| =========                 |                                                 |
| \\      /  F ield         | OpenFOAM: The Open Source CFD Toolbox           |
|  \\    /   O peration     | Version:  2.4.0                                 |
|   \\  /    A nd           | Web:      www.OpenFOAM.org                      |
|    \\/     M anipulation  |                                                 |
\*---------------------------------------------------------------------------*/
FoamFile
{
    version     2.0;
    format      ascii;
    class       volScalarField;
    location    "0.08";
    object      T.air;
}
// * * * * * * * * * * * * * * * * * * * * * * * * * * * * * * * * * * * * * //

dimensions      [0 0 0 1 0 0 0];

internalField   nonuniform List<scalar> 
1000
(
300
300
300
300
300
300
300
300
300
300
300
300
300
300
300
300
300
300
300
300
300
300
300
300
300
300
300
300
300
300
300
300
300
300
300
300
300
300
300
300
300
300
300
300
300
300
300
300
300
300
300
300
300
300
300
300
300
300
300
300
300
300
300
300
300
300
300
300
300
300
300
300
300
300
300
300
300
300
300
300
300
300
300
300
300
300
300
300
300
300
300
300
300
300
300
300
300
300
300
300
300
300
300
300
300
300
300
300
300
300
300
300
300
300
300
300
300
300
300
300
300
300
300
300
300
300
300
300
300
300
300
300
300
300
300
300
300
300
300
300
300
300
300
300
300
300
300
300
300
300
300
300
300
300
300
300
300
300
300
300
300
300
300
300
300
300
300
300
300
300
300
300
300
300
300
300
300
300
300
300
300
300
300
300
300
300
300
300
300
300
300
300
300
300
300
300
300
300
300
300
300
300
300
300
300
300
300
300
300
300
300
300
300
300
300
300
300
300
300
300
300
300
300
300
300
300
300
300
300
300
300
300
300
300
300
300
300
300
300
300
300
300
300
300
300
300
300
300
300
300
300
300
300
300
300
300
300
300
300
300
300
300
300
300
300
300
300
300
300
300
300
300
300
300
300
300
300
300
300
300
300
300
300
300
300
300
300
300
300
300
300
300
300
300
300
300
300
300
300
300
300
300
300
300
300
300
300
300
300
300
300
300
300
300
300
300
300
300
300
300
300
300
300
300
300
300
300
300
300
300
300
300
300
300
300
300
300
300
300
300
300
300
300
300
300
300
300
300
300
300
300
300
300
300
300
300
300
300
300
300
300
300
300
300
300
300
300
300
300
300
300
300
300
300
300
300
300
300
300
300
300
300
300
300
300
300
300
300
300
300
300
300
300
300
300
300
300
300
300
300
300
300
300
300
300
300
300
300
300
300
300
300
300
300
300
300
300
300
300
300
300
300
300
300
300
300
300
300
300
300
300
300
300
300
300
300
300
300
300
300
300
300
300
300
300
300
300
300
300
300
300
300
300
300
300
300
300
300
300
300
300
300
300
300
300
300
300
300
300
300
300
300
300
300
300
300
300
300
300
300
300
300
300
300
300
300
300
300
300
300
300
300
300
300
300
300
300
300
300
300
300
300
300
300
300
300
300
300
300
300
300
300
300
300
300
300
300
300
300
300
300
300
300
300
300
300
300
300
300
300
300
300
300
300
300
300
300
300
300
300
300
300
300
300
300
300
300
300
300
300
300
300
300
300
300
300
300
300
300
300
300
300
300
300
300
300
300
300
300
300
300
300
300
300
300
300
300
300
300
300
300
300
300
300
300
300
300
300
300
300
300
300
300
300
300
300
300
300
300
300
300
300
300
300
300
300
300
300
300
300
300
300
300
300
300
300
300
300
300
300
300
300
300
300
300
300
300
300
300
300
300
300
300
300
300
300
300
300
300
300
300
300
300
300
300
300
300
300
300
300
300
300
300
300
300
300
300
300
300
300
300
300
300
300
300
300
300
300
300
300
300
300
300
300
300
300
300
300
300
300
300
300
300
300
300
300
300
300
300
300
300
300
300
300
300
300
300
300
300
300
300
300
300
300
300
300
300
300
300
300
300
300
300
300
300
300
300
300
300
300
300
300
300
300
300
300
300
300
300
300
299.999
299.999
299.999
299.998
299.998
299.997
299.996
299.995
299.994
299.992
299.99
299.987
299.984
299.98
299.975
299.969
299.962
299.953
299.944
299.933
299.92
299.905
299.888
299.869
299.848
299.825
299.799
299.771
299.74
299.706
299.67
299.632
299.591
299.548
299.502
299.454
299.403
299.351
299.297
299.241
299.183
299.124
299.063
299.001
298.938
298.874
298.809
298.743
298.676
298.609
298.541
298.472
298.403
298.334
298.264
298.194
298.123
298.052
297.981
297.91
297.838
297.766
297.694
297.621
297.549
297.476
297.403
297.329
297.256
297.182
297.108
297.034
296.959
296.884
296.809
296.734
296.659
296.583
296.507
296.43
296.354
296.277
296.2
296.123
296.045
295.967
295.889
295.81
295.732
295.652
295.573
295.493
295.413
295.333
295.253
295.172
295.09
295.009
294.927
294.845
294.762
294.68
294.597
294.513
294.429
294.345
294.261
294.176
294.091
294.006
293.92
293.834
293.747
293.661
293.574
293.486
293.398
293.31
293.222
293.133
293.044
292.955
292.865
292.774
292.684
292.593
292.502
292.41
292.318
292.225
292.132
292.039
291.945
291.851
291.757
291.662
291.566
291.47
291.374
291.277
291.18
291.083
290.983
290.887
290.784
290.69
290.582
290.492
290.377
290.292
290.171
290.089
289.963
289.883
289.752
289.676
289.54
289.465
289.325
289.253
289.109
289.036
288.89
288.817
288.669
288.595
288.446
288.37
288.219
288.143
287.985
287.819
287.654
287.488
287.321
287.154
286.986
286.818
286.648
286.477
286.305
286.132
285.959
285.783
285.61
285.43
285.259
285.071
284.905
284.705
284.551
284.331
284.195
283.954
283.83
283.58
283.454
283.202
283.075
282.819
282.69
282.432
282.302
282.04
281.908
281.642
281.508
281.239
281.102
280.828
280.689
280.41
280.269
279.984
279.841
279.551
279.405
279.11
278.961
278.662
278.51
278.205
278.051
277.741
277.585
277.27
277.111
276.791
276.63
276.305
276.142
275.812
275.646
275.312
275.144
274.805
274.634
274.291
274.119
273.772
273.597
273.246
273.07
272.715
272.537
272.179
272
271.639
271.458
271.095
270.913
270.548
270.365
269.999
269.815
269.449
269.265
268.898
268.716
268.35
268.168
267.803
267.622
267.26
267.08
266.72
266.539
266.085
266.114
266.111
)
;

boundaryField
{
    sideLeft
    {
        type            symmetryPlane;
    }
    sideRight
    {
        type            zeroGradient;
    }
    topbottom
    {
        type            empty;
    }
    frontback
    {
        type            empty;
    }
}


// ************************************************************************* //
