/*--------------------------------*- C++ -*----------------------------------*\
| =========                 |                                                 |
| \\      /  F ield         | OpenFOAM: The Open Source CFD Toolbox           |
|  \\    /   O peration     | Version:  2.4.0                                 |
|   \\  /    A nd           | Web:      www.OpenFOAM.org                      |
|    \\/     M anipulation  |                                                 |
\*---------------------------------------------------------------------------*/
FoamFile
{
    version     2.0;
    format      ascii;
    class       volScalarField;
    location    "0.08";
    object      T.water;
}
// * * * * * * * * * * * * * * * * * * * * * * * * * * * * * * * * * * * * * //

dimensions      [0 0 0 1 0 0 0];

internalField   nonuniform List<scalar> 
1000
(
300
300
300
300
300
300
300
300
300
300
300
300
300
300
300
300
300
300
300
300
300
300
300
300
300
300
300
300
300
300
300
300
300
300
300
300
300
300
300
300
300
300
300
300
300
300
300
300
300
300
300
300
300
300
300
300
300
300
300
300
300
300
300
300
300
300
300
300
300
300
300
300
300
300
300
300
300
300
300
300
300
300
300
300
300
300
300
300
300
300
300
300
300
300
300
300
300
300
300
300
300
300
300
300
300
300
300
300
300
300
300
300
300
300
300
300
300
300
300
300
300
300
300
300
300
300
300
300
300
300
300
300
300
300
300
300
300
300
300
300
300
300
300
300
300
300
300
300
300
300
300
300
300
300
300
300
300
300
300
300
300
300
300
300
300
300
300
300
300
300
300
300
300
300
300
300
300
300
300
300
300
300
300
300
300
300
300
300
300
300
300
300
300
300
300
300
300
300
300
300
300
300
300
300
300
300
300
300
300
300
300
300
300
300
300
300
300
300
300
300
300
300
300
300
300
300
300
300
300
300
300
300
300
300
300
300
300
300
300
300
300
300
300
300
300
300
300
300
300
300
300
300
300
300
300
300
300
300
300
300
300
300
300
300
300
300
300
300
300
300
300
300
300
300
300
300
300
300
300
300
300
300
300
300
300
300
300
300
300
300
300
300
300
300
300
300
300
300
300
300
300
300
300
300
300
300
300
300
300
300
300
300
300
300
300
300
300
300
300
300
300
300
300
300
300
300
300
300
300
300
300
300
300
300
300
300
300
300
300
300
300
300
300
300
300
300
300
300
300
300
300
300
300
300
300
300
300
300
300
300
300
300
300
300
300
300
300
300
300
300
300
300
300
300
300
300
300
300
300
300
300
300
300
300
300
300
300
300
300
300
300
300
300
300
300
300
300
300
300
300
300
300
300
300
300
300
300
300
300
300
300
300
300
300
300
300
300
300
300
300
300
300
300
300
300
300
300
300
300
300
300
300
300
300
300
300
300
300
300
300
300
300
300
300
300
300
300
300
300
300
300
300
300
300
300
300
300
300
300
300
300
300
300
300
300
300
300
300
300
300
300
300
300
300
300
300
300
300
300
300
300
300
300
300
300
300
300
300
300
300
300
300
300
300
300
300
300
300
300
300
300
300
300
300
300
300
300
300
300
300
300
300
300
300
300
300
300
300
300
300
300
300
300
300
300
300
300
300
300
300
300
300
300
300
300
300
300
300
300
300
300
300
300
300
300
300
300
300
300
300
300
300
300
300
300
300
300
300
300
300
300
300
300
300
300
300
300
300
300
300
300
300
300
300
300
300
300
300
300
300
300
300
300
300
300
300
300
300
300
300
300
300
300
300
300
300
300
300
300
300
300
300
300
300
300
300
300
300
300
300
300
300
300
300
300
300
300
300
300
300
300
300
300
300
300
300
300
300
300
300
300
300
300
300
300
300
300
300
300
300
300
300
300
300
300
300
300
300
300
300
300
300
300
300
300
300
300
300
300
300
300
300
300
300
300
300
300
300
300
300
300
300
300
300
300
300
300
300
300
300
300
300
300
300
300
300
300
300
300
300
300
300
300
300
300
300
300
300
300
300
300
300
300
300
300
300
300
300
300
300
300
300
300
300
300
300
300
300
300
300
300
300
300
300
300
300
300
300
300
299.999
299.999
299.999
299.999
299.998
299.998
299.997
299.996
299.995
299.993
299.991
299.989
299.986
299.983
299.978
299.973
299.967
299.959
299.951
299.941
299.929
299.916
299.9
299.883
299.864
299.842
299.818
299.791
299.762
299.731
299.696
299.66
299.621
299.579
299.535
299.489
299.44
299.389
299.336
299.282
299.225
299.167
299.108
299.047
298.985
298.922
298.857
298.792
298.726
298.659
298.592
298.524
298.456
298.387
298.317
298.247
298.177
298.107
298.036
297.965
297.894
297.822
297.75
297.678
297.606
297.533
297.46
297.387
297.314
297.241
297.167
297.093
297.019
296.944
296.87
296.795
296.719
296.644
296.568
296.492
296.416
296.34
296.263
296.186
296.109
296.031
295.953
295.875
295.797
295.718
295.639
295.56
295.48
295.4
295.32
295.239
295.159
295.078
294.996
294.914
294.832
294.75
294.667
294.584
294.501
294.417
294.333
294.249
294.164
294.079
293.994
293.908
293.822
293.736
293.649
293.562
293.475
293.387
293.299
293.21
293.122
293.033
292.943
292.853
292.763
292.673
292.582
292.491
292.399
292.307
292.214
292.122
292.028
291.935
291.841
291.746
291.651
291.556
291.46
291.364
291.267
291.17
291.073
290.973
290.877
290.774
290.68
290.572
290.482
290.367
290.282
290.161
290.079
289.953
289.874
289.743
289.666
289.53
289.456
289.316
289.243
289.099
289.027
288.882
288.808
288.66
288.586
288.437
288.362
288.211
288.135
287.976
287.811
287.645
287.479
287.313
287.146
286.978
286.809
286.64
286.469
286.297
286.124
285.951
285.776
285.602
285.423
285.251
285.063
284.898
284.697
284.544
284.324
284.187
283.947
283.823
283.572
283.446
283.194
283.067
282.812
282.683
282.424
282.294
282.033
281.901
281.635
281.501
281.232
281.095
280.821
280.682
280.403
280.262
279.978
279.834
279.544
279.398
279.104
278.955
278.655
278.504
278.199
278.045
277.735
277.579
277.264
277.105
276.785
276.624
276.299
276.135
275.806
275.64
275.306
275.137
274.799
274.628
274.285
274.113
273.766
273.591
273.24
273.064
272.709
272.531
272.174
271.994
271.633
271.452
271.089
270.907
270.542
270.359
269.993
269.81
269.443
269.26
268.893
268.711
268.344
268.162
267.798
267.617
267.255
267.075
266.715
266.535
266.08
266.111
266.112
)
;

boundaryField
{
    sideLeft
    {
        type            symmetryPlane;
    }
    sideRight
    {
        type            zeroGradient;
    }
    topbottom
    {
        type            empty;
    }
    frontback
    {
        type            empty;
    }
}


// ************************************************************************* //
