/*--------------------------------*- C++ -*----------------------------------*\
| =========                 |                                                 |
| \\      /  F ield         | OpenFOAM: The Open Source CFD Toolbox           |
|  \\    /   O peration     | Version:  2.4.0                                 |
|   \\  /    A nd           | Web:      www.OpenFOAM.org                      |
|    \\/     M anipulation  |                                                 |
\*---------------------------------------------------------------------------*/
FoamFile
{
    version     2.0;
    format      ascii;
    class       volVectorField;
    location    "0.08";
    object      U;
}
// * * * * * * * * * * * * * * * * * * * * * * * * * * * * * * * * * * * * * //

dimensions      [0 1 -1 0 0 0 0];

internalField   nonuniform List<vector> 
1000
(
(-4.26316e-14 0 0)
(-3.55274e-14 0 0)
(-2.91322e-13 0 0)
(-2.27374e-13 0 0)
(-2.34479e-13 0 0)
(-3.48166e-13 0 0)
(-4.05009e-13 0 0)
(-6.25278e-13 0 0)
(-6.46594e-13 0 0)
(-5.54223e-13 0 0)
(-5.82645e-13 0 0)
(-5.75539e-13 0 0)
(-6.32383e-13 0 0)
(-7.38964e-13 0 0)
(-5.61329e-13 0 0)
(-5.25801e-13 0 0)
(-5.25802e-13 0 0)
(-6.75015e-13 0 0)
(-6.11067e-13 0 0)
(-6.75015e-13 0 0)
(-7.3186e-13 0 0)
(-8.59756e-13 0 0)
(-6.89227e-13 0 0)
(-5.04485e-13 0 0)
(-5.7554e-13 0 0)
(-8.31335e-13 0 0)
(-1.00897e-12 0 0)
(-1.11555e-12 0 0)
(-1.12976e-12 0 0)
(-8.88179e-13 0 0)
(-9.23705e-13 0 0)
(-1.06581e-12 0 0)
(-9.52127e-13 0 0)
(-8.31335e-13 0 0)
(-5.54224e-13 0 0)
(-6.11066e-13 0 0)
(-6.96333e-13 0 0)
(-6.46593e-13 0 0)
(-4.61853e-13 0 0)
(-5.04485e-13 0 0)
(-5.40013e-13 0 0)
(-5.68434e-13 0 0)
(-9.23708e-14 0 0)
(-5.68431e-14 0 0)
(-4.97382e-14 0 0)
(-3.55271e-14 0 0)
(5.68434e-14 0 0)
(1.35003e-13 0 0)
(1.06581e-13 0 0)
(2.84217e-13 0 0)
(4.54748e-13 0 0)
(2.34479e-13 0 0)
(3.62377e-13 0 0)
(7.24753e-13 0 0)
(4.0501e-13 0 0)
(5.11591e-13 0 0)
(4.26326e-13 0 0)
(4.90274e-13 0 0)
(3.97904e-13 0 0)
(1.06581e-13 0 0)
(-1.06581e-13 0 0)
(-1.06582e-13 0 0)
(3.55273e-14 0 0)
(4.9738e-14 0 0)
(-1.56319e-13 0 0)
(-4.47642e-13 0 0)
(-5.7554e-13 0 0)
(-4.05009e-13 0 0)
(-2.84217e-13 0 0)
(-1.77636e-13 0 0)
(-1.42107e-14 0 0)
(1.42108e-13 0 0)
(1.98952e-13 0 0)
(2.77111e-13 0 0)
(9.94759e-14 0 0)
(-4.97377e-14 0 0)
(2.20268e-13 0 0)
(2.20269e-13 0 0)
(2.20268e-13 0 0)
(2.20268e-13 0 0)
(-5.68436e-14 0 0)
(-1.98952e-13 0 0)
(-2.84216e-14 0 0)
(1.06581e-13 0 0)
(-1.7053e-13 0 0)
(-3.48166e-13 0 0)
(-6.03961e-13 0 0)
(-4.19221e-13 0 0)
(-1.77636e-13 0 0)
(-3.55269e-14 0 0)
(1.49214e-13 0 0)
(2.4869e-13 0 0)
(-2.13161e-14 0 0)
(-1.5632e-13 0 0)
(-2.34479e-13 0 0)
(1.63424e-13 0 0)
(3.05534e-13 0 0)
(1.91846e-13 0 0)
(3.2685e-13 0 0)
(4.47642e-13 0 0)
(2.91323e-13 0 0)
(9.94759e-14 0 0)
(-1.20792e-13 0 0)
(-7.81598e-14 0 0)
(-2.27374e-13 0 0)
(-6.03961e-13 0 0)
(-7.38965e-13 0 0)
(-9.02389e-13 0 0)
(-9.09494e-13 0 0)
(-7.10543e-13 0 0)
(-5.54223e-13 0 0)
(-1.35003e-13 0 0)
(-2.06057e-13 0 0)
(-3.05534e-13 0 0)
(-5.11591e-13 0 0)
(-5.25802e-13 0 0)
(-6.03961e-13 0 0)
(-6.60805e-13 0 0)
(-5.96856e-13 0 0)
(-7.03437e-13 0 0)
(-7.60281e-13 0 0)
(-9.09495e-13 0 0)
(-7.17648e-13 0 0)
(-8.24229e-13 0 0)
(-7.17648e-13 0 0)
(-7.31859e-13 0 0)
(-7.4607e-13 0 0)
(-7.81597e-13 0 0)
(-7.24754e-13 0 0)
(-6.11066e-13 0 0)
(-4.40537e-13 0 0)
(-5.32906e-13 0 0)
(-2.42243e-19 0 0)
(2.27374e-13 0 0)
(8.52648e-14 0 0)
(-8.52648e-14 0 0)
(-4.97381e-14 0 0)
(-1.42108e-14 0 0)
(4.26323e-14 0 0)
(2.4869e-13 0 0)
(3.12639e-13 0 0)
(1.06581e-13 0 0)
(1.98952e-13 0 0)
(1.13686e-13 0 0)
(-5.68431e-14 0 0)
(7.10541e-14 0 0)
(-2.13163e-13 0 0)
(-1.06581e-13 0 0)
(2.34479e-13 0 0)
(2.98428e-13 0 0)
(-4.9738e-14 0 0)
(-4.97378e-14 0 0)
(-3.12639e-13 0 0)
(-3.62377e-13 0 0)
(-1.20792e-13 0 0)
(-4.83169e-13 0 0)
(-6.18172e-13 0 0)
(-5.47118e-13 0 0)
(-5.61329e-13 0 0)
(-4.33431e-13 0 0)
(-4.12114e-13 0 0)
(-3.83694e-13 0 0)
(-4.1922e-13 0 0)
(-2.34479e-13 0 0)
(7.10547e-14 0 0)
(3.19744e-13 0 0)
(-2.13159e-14 0 0)
(-1.13687e-13 0 0)
(-3.97904e-13 0 0)
(-4.05009e-13 0 0)
(1.42109e-14 0 0)
(3.26849e-13 0 0)
(1.91847e-13 0 0)
(2.4869e-13 0 0)
(1.91847e-13 0 0)
(-6.39493e-14 0 0)
(-4.47642e-13 0 0)
(-2.84217e-13 0 0)
(-2.70006e-13 0 0)
(-2.20268e-13 0 0)
(-5.68435e-14 0 0)
(5.68434e-14 0 0)
(2.27373e-13 0 0)
(-6.39483e-14 0 0)
(-1.06582e-13 0 0)
(2.84221e-14 0 0)
(2.98427e-13 0 0)
(3.19745e-13 0 0)
(6.89226e-13 0 0)
(6.32384e-13 0 0)
(5.40012e-13 0 0)
(1.42113e-14 0 0)
(2.20268e-13 0 0)
(4.40537e-13 0 0)
(3.83693e-13 0 0)
(2.77112e-13 0 0)
(2.06058e-13 0 0)
(1.42108e-13 0 0)
(1.56319e-13 0 0)
(2.98428e-13 0 0)
(3.12638e-13 0 0)
(1.20793e-13 0 0)
(1.42108e-13 0 0)
(-3.97904e-13 0 0)
(-7.03437e-13 0 0)
(-8.59757e-13 0 0)
(-1.00897e-12 0 0)
(-1.05871e-12 0 0)
(-4.83169e-13 0 0)
(-4.26327e-14 0 0)
(-1.98952e-13 0 0)
(-1.83658e-19 0 0)
(-3.55269e-14 0 0)
(-6.39491e-14 0 0)
(-2.55795e-13 0 0)
(-2.41585e-13 0 0)
(-3.05533e-13 0 0)
(-4.47642e-13 0 0)
(-2.84217e-13 0 0)
(-9.94761e-14 0 0)
(-4.40537e-13 0 0)
(-5.54223e-13 0 0)
(-5.18696e-13 0 0)
(-5.04485e-13 0 0)
(-1.91846e-13 0 0)
(-2.91323e-13 0 0)
(-9.94762e-14 0 0)
(9.94765e-14 0 0)
(9.94755e-14 0 0)
(-1.7053e-13 0 0)
(-3.69482e-13 0 0)
(-6.03961e-13 0 0)
(-5.96856e-13 0 0)
(-5.25802e-13 0 0)
(-8.66862e-13 0 0)
(-8.2423e-13 0 0)
(-8.10018e-13 0 0)
(-4.40537e-13 0 0)
(-5.75539e-13 0 0)
(-5.8975e-13 0 0)
(-4.47642e-13 0 0)
(-4.40537e-13 0 0)
(-7.53175e-13 0 0)
(-7.3186e-13 0 0)
(-8.88178e-13 0 0)
(-9.45022e-13 0 0)
(-6.6791e-13 0 0)
(-3.83693e-13 0 0)
(-3.48166e-13 0 0)
(-1.49214e-13 0 0)
(6.39488e-14 0 0)
(1.49214e-13 0 0)
(3.12639e-13 0 0)
(2.06058e-13 0 0)
(4.26325e-13 0 0)
(4.54748e-13 0 0)
(6.96332e-13 0 0)
(7.17648e-13 0 0)
(6.82121e-13 0 0)
(8.10019e-13 0 0)
(8.95284e-13 0 0)
(9.09495e-13 0 0)
(7.81597e-13 0 0)
(7.24754e-13 0 0)
(5.11591e-13 0 0)
(5.61328e-13 0 0)
(4.61854e-13 0 0)
(4.76063e-13 0 0)
(4.47642e-13 0 0)
(4.9738e-13 0 0)
(5.47118e-13 0 0)
(6.53699e-13 0 0)
(5.40013e-13 0 0)
(4.47642e-13 0 0)
(2.13163e-13 0 0)
(3.4106e-13 0 0)
(4.8317e-13 0 0)
(6.11066e-13 0 0)
(7.31859e-13 0 0)
(7.10543e-13 0 0)
(4.90275e-13 0 0)
(5.04485e-13 0 0)
(4.1922e-13 0 0)
(9.94767e-14 0 0)
(-5.6844e-14 0 0)
(-4.26323e-14 0 0)
(-9.23708e-14 0 0)
(-3.5527e-14 0 0)
(-5.68436e-14 0 0)
(1.84741e-13 0 0)
(2.70006e-13 0 0)
(3.76588e-13 0 0)
(6.32383e-13 0 0)
(3.76588e-13 0 0)
(5.32907e-13 0 0)
(4.40537e-13 0 0)
(4.90275e-13 0 0)
(4.26325e-13 0 0)
(4.40536e-13 0 0)
(2.55796e-13 0 0)
(1.42108e-13 0 0)
(6.3949e-14 0 0)
(-1.42108e-13 0 0)
(-3.62377e-13 0 0)
(-3.90798e-13 0 0)
(-2.27374e-13 0 0)
(-9.23703e-14 0 0)
(-2.13163e-13 0 0)
(-2.20268e-13 0 0)
(-1.06581e-13 0 0)
(-4.97381e-14 0 0)
(-1.91846e-13 0 0)
(-9.9476e-14 0 0)
(-3.55271e-13 0 0)
(-3.12639e-13 0 0)
(-3.33955e-13 0 0)
(-5.40013e-13 0 0)
(-4.1922e-13 0 0)
(-7.10541e-14 0 0)
(7.10515e-15 0 0)
(-1.27898e-13 0 0)
(5.68437e-14 0 0)
(9.23703e-14 0 0)
(1.91847e-13 0 0)
(4.76063e-13 0 0)
(2.62901e-13 0 0)
(2.20268e-13 0 0)
(1.7053e-13 0 0)
(1.49214e-13 0 0)
(2.70006e-13 0 0)
(4.26326e-13 0 0)
(3.83693e-13 0 0)
(3.2685e-13 0 0)
(4.76063e-13 0 0)
(4.33431e-13 0 0)
(2.06057e-13 0 0)
(-2.13162e-14 0 0)
(1.20792e-13 0 0)
(6.39488e-14 0 0)
(-9.23705e-14 0 0)
(-1.70531e-13 0 0)
(-1.42108e-13 0 0)
(-2.27374e-13 0 0)
(-1.91846e-13 0 0)
(-1.70531e-13 0 0)
(-2.13162e-13 0 0)
(-1.06582e-13 0 0)
(1.27898e-13 0 0)
(9.23701e-14 0 0)
(9.94762e-14 0 0)
(4.26326e-13 0 0)
(2.55795e-13 0 0)
(2.06057e-13 0 0)
(2.41585e-13 0 0)
(4.12115e-13 0 0)
(3.69482e-13 0 0)
(2.4869e-13 0 0)
(7.10541e-14 0 0)
(-1.42108e-14 0 0)
(1.06581e-13 0 0)
(1.42108e-13 0 0)
(6.39488e-14 0 0)
(2.13165e-14 0 0)
(9.23706e-14 0 0)
(1.84741e-13 0 0)
(3.62376e-13 0 0)
(3.55272e-13 0 0)
(1.20792e-13 0 0)
(-1.77635e-13 0 0)
(-7.10551e-15 0 0)
(4.97382e-14 0 0)
(-2.84221e-14 0 0)
(-3.33955e-13 0 0)
(-2.20268e-13 0 0)
(5.68438e-14 0 0)
(4.97376e-14 0 0)
(2.13165e-14 0 0)
(-2.77112e-13 0 0)
(-3.4106e-13 0 0)
(4.97374e-14 0 0)
(-1.06581e-13 0 0)
(-1.98952e-13 0 0)
(3.62377e-13 0 0)
(6.53699e-13 0 0)
(4.76063e-13 0 0)
(2.27375e-13 0 0)
(3.19743e-13 0 0)
(4.54748e-13 0 0)
(2.98427e-13 0 0)
(3.2685e-13 0 0)
(3.76587e-13 0 0)
(4.26326e-13 0 0)
(5.8975e-13 0 0)
(3.2685e-13 0 0)
(1.98951e-13 0 0)
(-1.63424e-13 0 0)
(8.52649e-14 0 0)
(2.06058e-13 0 0)
(9.23702e-14 0 0)
(2.20268e-13 0 0)
(5.32907e-13 0 0)
(4.76064e-13 0 0)
(4.47642e-13 0 0)
(5.96856e-13 0 0)
(2.84217e-13 0 0)
(1.27898e-13 0 0)
(1.13687e-13 0 0)
(3.12639e-13 0 0)
(-2.84213e-14 0 0)
(-1.42111e-14 0 0)
(1.49214e-13 0 0)
(5.68431e-14 0 0)
(6.39491e-14 0 0)
(2.84217e-13 0 0)
(-2.13163e-14 0 0)
(1.06582e-13 0 0)
(3.19744e-13 0 0)
(5.32907e-13 0 0)
(2.06058e-13 0 0)
(7.10456e-15 0 0)
(-7.10537e-14 0 0)
(2.84215e-14 0 0)
(2.27374e-13 0 0)
(1.98952e-13 0 0)
(3.83693e-13 0 0)
(6.39489e-13 0 0)
(6.46594e-13 0 0)
(4.40537e-13 0 0)
(7.17648e-13 0 0)
(7.10543e-13 0 0)
(5.8975e-13 0 0)
(5.61329e-13 0 0)
(6.32383e-13 0 0)
(7.88702e-13 0 0)
(5.8975e-13 0 0)
(3.76588e-13 0 0)
(3.62377e-13 0 0)
(3.69483e-13 0 0)
(7.17648e-13 0 0)
(9.94761e-13 0 0)
(1.32161e-12 0 0)
(1.30029e-12 0 0)
(1.33582e-12 0 0)
(1.13687e-12 0 0)
(8.31335e-13 0 0)
(6.39488e-13 0 0)
(5.25802e-13 0 0)
(5.47118e-13 0 0)
(2.77112e-13 0 0)
(2.98428e-13 0 0)
(4.33431e-13 0 0)
(-8.5265e-14 0 0)
(-2.77112e-13 0 0)
(-3.97904e-13 0 0)
(-5.25801e-13 0 0)
(-5.18696e-13 0 0)
(-4.1922e-13 0 0)
(-2.70006e-13 0 0)
(-2.3448e-13 0 0)
(-4.76063e-13 0 0)
(-2.84218e-13 0 0)
(-2.55795e-13 0 0)
(-9.2371e-14 0 0)
(7.1058e-15 0 0)
(2.27373e-13 0 0)
(3.41061e-13 0 0)
(5.18696e-13 0 0)
(3.19745e-13 0 0)
(2.27373e-13 0 0)
(1.91847e-13 0 0)
(2.77112e-13 0 0)
(4.12115e-13 0 0)
(3.48166e-13 0 0)
(4.61853e-13 0 0)
(3.76588e-13 0 0)
(9.23704e-14 0 0)
(-2.84214e-14 0 0)
(-9.2371e-14 0 0)
(-4.97375e-14 0 0)
(1.27897e-13 0 0)
(-1.91846e-13 0 0)
(-1.91847e-13 0 0)
(-3.33955e-13 0 0)
(-1.84742e-13 0 0)
(-3.33955e-13 0 0)
(-5.40013e-13 0 0)
(-4.05009e-13 0 0)
(-3.41061e-13 0 0)
(-2.98428e-13 0 0)
(7.10518e-15 0 0)
(9.94759e-14 0 0)
(2.70006e-13 0 0)
(4.12115e-13 0 0)
(3.05533e-13 0 0)
(1.35003e-13 0 0)
(2.4869e-13 0 0)
(3.62377e-13 0 0)
(4.47642e-13 0 0)
(7.81597e-13 0 0)
(7.53175e-13 0 0)
(5.18696e-13 0 0)
(3.12639e-13 0 0)
(1.49214e-13 0 0)
(2.84217e-13 0 0)
(5.40013e-13 0 0)
(6.32383e-13 0 0)
(6.75016e-13 0 0)
(7.24753e-13 0 0)
(6.32384e-13 0 0)
(6.8212e-13 0 0)
(4.8317e-13 0 0)
(3.62377e-13 0 0)
(2.98428e-13 0 0)
(2.4869e-13 0 0)
(1.35003e-13 0 0)
(1.98952e-13 0 0)
(7.10554e-15 0 0)
(7.10537e-15 0 0)
(-3.55273e-14 0 0)
(-1.49214e-13 0 0)
(-2.27374e-13 0 0)
(-7.53175e-13 0 0)
(-3.97904e-13 0 0)
(-2.77111e-13 0 0)
(-2.06058e-13 0 0)
(1.27898e-13 0 0)
(1.13687e-13 0 0)
(2.20269e-13 0 0)
(4.26325e-13 0 0)
(1.70531e-13 0 0)
(4.26322e-14 0 0)
(7.10556e-15 0 0)
(2.84217e-14 0 0)
(2.41585e-13 0 0)
(2.27373e-13 0 0)
(4.26326e-14 0 0)
(-1.63425e-13 0 0)
(-3.55271e-13 0 0)
(-5.32907e-13 0 0)
(-3.97904e-13 0 0)
(-3.48166e-13 0 0)
(-4.12115e-13 0 0)
(-2.27373e-13 0 0)
(-5.04486e-13 0 0)
(-7.31859e-13 0 0)
(-8.24229e-13 0 0)
(-4.90275e-13 0 0)
(-6.39488e-13 0 0)
(-4.26326e-13 0 0)
(-3.48166e-13 0 0)
(-5.47118e-13 0 0)
(-6.46594e-13 0 0)
(-6.89226e-13 0 0)
(-4.05009e-13 0 0)
(-2.13165e-14 0 0)
(-1.06581e-13 0 0)
(-4.61853e-13 0 0)
(-2.20268e-13 0 0)
(-2.41585e-13 0 0)
(-2.06057e-13 0 0)
(-1.27897e-13 0 0)
(-1.63425e-13 0 0)
(-3.26849e-13 0 0)
(-1.91847e-13 0 0)
(4.54747e-13 0 0)
(7.10548e-14 0 0)
(-4.26332e-14 0 0)
(1.49214e-13 0 0)
(1.27898e-13 0 0)
(2.84217e-13 0 0)
(5.1159e-13 0 0)
(4.33431e-13 0 0)
(3.90798e-13 0 0)
(3.41061e-13 0 0)
(3.97904e-13 0 0)
(4.1922e-13 0 0)
(5.82645e-13 0 0)
(5.75539e-13 0 0)
(2.06058e-13 0 0)
(2.98428e-13 0 0)
(2.70006e-13 0 0)
(2.4869e-13 0 0)
(9.94762e-14 0 0)
(7.10539e-14 0 0)
(1.70531e-13 0 0)
(3.97904e-13 0 0)
(6.60805e-13 0 0)
(9.73443e-13 0 0)
(9.09495e-13 0 0)
(8.45545e-13 0 0)
(5.47119e-13 0 0)
(4.1922e-13 0 0)
(-2.13158e-14 0 0)
(7.10499e-15 0 0)
(-3.76587e-13 0 0)
(-8.38441e-13 0 0)
(-1.06581e-12 0 0)
(-1.02318e-12 0 0)
(-1.15108e-12 0 0)
(-1.25766e-12 0 0)
(-1.1724e-12 0 0)
(-1.11555e-12 0 0)
(-7.38964e-13 0 0)
(-5.40012e-13 0 0)
(-3.90799e-13 0 0)
(-1.98952e-13 0 0)
(-1.06582e-13 0 0)
(-8.52649e-14 0 0)
(-1.20792e-13 0 0)
(8.52653e-14 0 0)
(-7.81599e-14 0 0)
(-8.52651e-14 0 0)
(-3.5527e-14 0 0)
(-3.19744e-13 0 0)
(-5.11591e-13 0 0)
(-5.18697e-13 0 0)
(-3.97903e-13 0 0)
(-2.3448e-13 0 0)
(2.13167e-14 0 0)
(-1.06581e-13 0 0)
(-2.27374e-13 0 0)
(-2.27374e-13 0 0)
(-1.20792e-13 0 0)
(-1.77636e-13 0 0)
(-2.84217e-13 0 0)
(-3.83693e-13 0 0)
(-6.32383e-13 0 0)
(-6.82121e-13 0 0)
(-8.3844e-13 0 0)
(-7.4607e-13 0 0)
(-8.38441e-13 0 0)
(-7.24754e-13 0 0)
(-7.10543e-13 0 0)
(-6.11066e-13 0 0)
(-3.55272e-13 0 0)
(-2.77111e-13 0 0)
(-2.77113e-13 0 0)
(-4.47641e-13 0 0)
(-7.53176e-13 0 0)
(-9.94759e-13 0 0)
(-8.52652e-13 0 0)
(-6.46593e-13 0 0)
(-4.9738e-13 0 0)
(-6.46594e-13 0 0)
(-7.60281e-13 0 0)
(-7.95808e-13 0 0)
(-5.89751e-13 0 0)
(-3.2685e-13 0 0)
(-2.4869e-13 0 0)
(-1.77636e-13 0 0)
(-1.5632e-13 0 0)
(-2.55795e-13 0 0)
(-1.35003e-13 0 0)
(-2.4869e-13 0 0)
(-2.20268e-13 0 0)
(-2.98429e-13 0 0)
(-4.05008e-13 0 0)
(-4.76065e-13 0 0)
(-1.07292e-12 0 0)
(-1.05871e-12 0 0)
(-9.02389e-13 0 0)
(-8.2423e-13 0 0)
(-9.02389e-13 0 0)
(-7.38965e-13 0 0)
(-7.46069e-13 0 0)
(-5.82646e-13 0 0)
(-7.81597e-13 0 0)
(-7.67386e-13 0 0)
(-8.17124e-13 0 0)
(-7.4607e-13 0 0)
(-7.4607e-13 0 0)
(-5.32907e-13 0 0)
(-4.12115e-13 0 0)
(-4.12115e-13 0 0)
(-3.48166e-13 0 0)
(-7.10539e-14 0 0)
(4.33431e-13 0 0)
(6.11067e-13 0 0)
(7.38964e-13 0 0)
(1.08713e-12 0 0)
(1.77636e-12 0 0)
(2.60769e-12 0 0)
(3.71614e-12 0 0)
(5.81935e-12 0 0)
(9.47153e-12 0 0)
(1.52198e-11 0 0)
(2.55653e-11 0 0)
(4.28457e-11 0 0)
(7.30722e-11 0 0)
(1.23862e-10 0 0)
(2.10044e-10 0 0)
(3.54596e-10 0 0)
(5.96572e-10 0 0)
(9.99549e-10 0 0)
(1.66706e-09 0 0)
(2.76741e-09 0 0)
(4.57261e-09 0 0)
(7.51856e-09 0 0)
(1.23014e-08 0 0)
(2.00271e-08 0 0)
(3.24423e-08 0 0)
(5.22895e-08 0 0)
(8.38498e-08 0 0)
(1.3377e-07 0 0)
(2.12307e-07 0 0)
(3.35198e-07 0 0)
(5.26442e-07 0 0)
(8.22419e-07 0 0)
(1.27794e-06 0 0)
(1.97506e-06 0 0)
(3.03588e-06 0 0)
(4.6409e-06 0 0)
(7.05527e-06 0 0)
(1.06659e-05 0 0)
(1.60337e-05 0 0)
(2.39662e-05 0 0)
(3.56183e-05 0 0)
(5.26301e-05 0 0)
(7.73145e-05 0 0)
(0.000112909 0 0)
(0.000163916 0 0)
(0.000236542 0 0)
(0.00033929 0 0)
(0.000483711 0 0)
(0.000685377 0 0)
(0.000965117 0 0)
(0.00135056 0 0)
(0.00187804 0 0)
(0.00259497 0 0)
(0.00356266 0 0)
(0.00485966 0 0)
(0.00658575 0 0)
(0.00886645 0 0)
(0.0118582 0 0)
(0.015754 0 0)
(0.0207896 0 0)
(0.02725 0 0)
(0.035476 0 0)
(0.0458706 0 0)
(0.058905 0 0)
(0.0751239 0 0)
(0.0951486 0 0)
(0.11968 0 0)
(0.149496 0 0)
(0.185453 0 0)
(0.228473 0 0)
(0.279543 0 0)
(0.339694 0 0)
(0.40999 0 0)
(0.491507 0 0)
(0.585316 0 0)
(0.692454 0 0)
(0.813905 0 0)
(0.950574 0 0)
(1.10327 0 0)
(1.27266 0 0)
(1.45932 0 0)
(1.66362 0 0)
(1.8858 0 0)
(2.12593 0 0)
(2.38391 0 0)
(2.65949 0 0)
(2.95225 0 0)
(3.26164 0 0)
(3.58698 0 0)
(3.92751 0 0)
(4.28234 0 0)
(4.65055 0 0)
(5.03115 0 0)
(5.42314 0 0)
(5.8255 0 0)
(6.23724 0 0)
(6.65736 0 0)
(7.08493 0 0)
(7.51905 0 0)
(7.95888 0 0)
(8.40365 0 0)
(8.85265 0 0)
(9.30523 0 0)
(9.76083 0 0)
(10.2189 0 0)
(10.6791 0 0)
(11.141 0 0)
(11.6042 0 0)
(12.0685 0 0)
(12.5337 0 0)
(12.9996 0 0)
(13.466 0 0)
(13.9328 0 0)
(14.4 0 0)
(14.8674 0 0)
(15.335 0 0)
(15.8027 0 0)
(16.2707 0 0)
(16.7387 0 0)
(17.207 0 0)
(17.6753 0 0)
(18.1439 0 0)
(18.6126 0 0)
(19.0815 0 0)
(19.5506 0 0)
(20.0199 0 0)
(20.4896 0 0)
(20.9595 0 0)
(21.4297 0 0)
(21.9003 0 0)
(22.3713 0 0)
(22.8426 0 0)
(23.3144 0 0)
(23.7867 0 0)
(24.2595 0 0)
(24.7328 0 0)
(25.2066 0 0)
(25.6811 0 0)
(26.1561 0 0)
(26.6318 0 0)
(27.1081 0 0)
(27.5852 0 0)
(28.0629 0 0)
(28.5414 0 0)
(29.0207 0 0)
(29.5007 0 0)
(29.9816 0 0)
(30.4633 0 0)
(30.9458 0 0)
(31.4292 0 0)
(31.9136 0 0)
(32.3988 0 0)
(32.8849 0 0)
(33.372 0 0)
(33.8601 0 0)
(34.3491 0 0)
(34.8391 0 0)
(35.33 0 0)
(35.822 0 0)
(36.315 0 0)
(36.809 0 0)
(37.3041 0 0)
(37.8001 0 0)
(38.2973 0 0)
(38.7954 0 0)
(39.2947 0 0)
(39.795 0 0)
(40.2964 0 0)
(40.7989 0 0)
(41.3025 0 0)
(41.8073 0 0)
(42.3132 0 0)
(42.8203 0 0)
(43.3285 0 0)
(43.838 0 0)
(44.3487 0 0)
(44.8607 0 0)
(45.3739 0 0)
(45.8885 0 0)
(46.4044 0 0)
(46.9216 0 0)
(47.4403 0 0)
(47.9604 0 0)
(48.482 0 0)
(49.0051 0 0)
(49.5297 0 0)
(50.0559 0 0)
(50.5837 0 0)
(51.1132 0 0)
(51.6443 0 0)
(52.1772 0 0)
(52.7117 0 0)
(53.2482 0 0)
(53.7861 0 0)
(54.3267 0 0)
(54.8679 0 0)
(55.4129 0 0)
(55.957 0 0)
(56.5074 0 0)
(57.0539 0 0)
(57.6104 0 0)
(58.1589 0 0)
(58.7218 0 0)
(59.273 0 0)
(59.8414 0 0)
(60.3969 0 0)
(60.9694 0 0)
(61.5305 0 0)
(62.1068 0 0)
(62.6735 0 0)
(63.2549 0 0)
(63.8261 0 0)
(64.4135 0 0)
(64.9898 0 0)
(65.5822 0 0)
(66.1649 0 0)
(66.762 0 0)
(67.3511 0 0)
(67.954 0 0)
(68.5485 0 0)
(69.1564 0 0)
(69.7564 0 0)
(70.3666 0 0)
(70.9681 0 0)
(71.5753 0 0)
(72.1756 0 0)
(72.7685 0 0)
(73.3557 0 0)
(73.9396 0 0)
(74.5241 0 0)
(75.1114 0 0)
(75.7025 0 0)
(76.2961 0 0)
(76.8941 0 0)
(77.4913 0 0)
(78.0931 0 0)
(78.6894 0 0)
(79.2968 0 0)
(79.8895 0 0)
(80.5072 0 0)
(81.0911 0 0)
(81.7285 0 0)
(82.294 0 0)
(82.9613 0 0)
(83.4937 0 0)
(84.2043 0 0)
(84.6925 0 0)
(85.4554 0 0)
(85.8963 0 0)
(86.7041 0 0)
(87.1152 0 0)
(87.9415 0 0)
(88.3527 0 0)
(89.1769 0 0)
(89.592 0 0)
(90.4204 0 0)
(90.834 0 0)
(91.664 0 0)
(92.0797 0 0)
(92.9118 0 0)
(93.3277 0 0)
(94.1616 0 0)
(94.5785 0 0)
(95.4137 0 0)
(95.8311 0 0)
(96.6675 0 0)
(97.0853 0 0)
(97.9225 0 0)
(98.3406 0 0)
(99.1784 0 0)
(99.5967 0 0)
(100.435 0 0)
(100.853 0 0)
(101.691 0 0)
(102.109 0 0)
(102.946 0 0)
(103.363 0 0)
(104.2 0 0)
(104.617 0 0)
(105.451 0 0)
(105.867 0 0)
(106.7 0 0)
(107.114 0 0)
(107.944 0 0)
(108.357 0 0)
(109.184 0 0)
(109.595 0 0)
(110.418 0 0)
(110.826 0 0)
(111.645 0 0)
(112.051 0 0)
(112.86 0 0)
(113.269 0 0)
(114.063 0 0)
(114.476 0 0)
(115.256 0 0)
(115.668 0 0)
(116.435 0 0)
(116.846 0 0)
(117.596 0 0)
(118.006 0 0)
(118.739 0 0)
(119.146 0 0)
(119.86 0 0)
(120.263 0 0)
(120.956 0 0)
(121.351 0 0)
(122.022 0 0)
(122.408 0 0)
(123.054 0 0)
(123.428 0 0)
(124.049 0 0)
(124.408 0 0)
(125.001 0 0)
(125.345 0 0)
(125.908 0 0)
(126.233 0 0)
(126.766 0 0)
(127.075 0 0)
(127.581 0 0)
(127.883 0 0)
(128.382 0 0)
(128.72 0 0)
(130.251 0 0)
)
;

boundaryField
{
    sideLeft
    {
        type            symmetryPlane;
    }
    sideRight
    {
        type            calculated;
        value           uniform (129.82 0 0);
    }
    topbottom
    {
        type            empty;
    }
    frontback
    {
        type            empty;
    }
}


// ************************************************************************* //
