/*--------------------------------*- C++ -*----------------------------------*\
| =========                 |                                                 |
| \\      /  F ield         | OpenFOAM: The Open Source CFD Toolbox           |
|  \\    /   O peration     | Version:  2.4.0                                 |
|   \\  /    A nd           | Web:      www.OpenFOAM.org                      |
|    \\/     M anipulation  |                                                 |
\*---------------------------------------------------------------------------*/
FoamFile
{
    version     2.0;
    format      ascii;
    class       volVectorField;
    location    "0.08";
    object      U.airMean;
}
// * * * * * * * * * * * * * * * * * * * * * * * * * * * * * * * * * * * * * //

dimensions      [0 1 -1 0 0 0 0];

internalField   nonuniform List<vector> 
1000
(
(-8.006e-14 0 0)
(-3.00561e-14 0 0)
(-7.49355e-14 0 0)
(-3.63533e-14 0 0)
(-8.58333e-14 0 0)
(-1.0694e-14 0 0)
(-6.68353e-14 0 0)
(-3.28183e-14 0 0)
(-4.53681e-14 0 0)
(-4.36629e-14 0 0)
(-5.63639e-14 0 0)
(-7.89322e-14 0 0)
(-3.02427e-14 0 0)
(-8.98834e-14 0 0)
(6.28811e-15 0 0)
(-5.59995e-14 0 0)
(2.69107e-15 0 0)
(-4.20108e-14 0 0)
(9.61877e-15 0 0)
(-6.77677e-14 0 0)
(1.35533e-14 0 0)
(-5.77225e-14 0 0)
(-4.71802e-14 0 0)
(-7.38609e-14 0 0)
(-9.79305e-14 0 0)
(-8.59313e-14 0 0)
(-9.76197e-14 0 0)
(-8.32402e-14 0 0)
(-1.42774e-13 0 0)
(-5.62309e-14 0 0)
(-1.13003e-13 0 0)
(-1.01439e-13 0 0)
(-8.40395e-14 0 0)
(-9.38448e-14 0 0)
(-4.74912e-14 0 0)
(-1.52491e-13 0 0)
(1.37623e-15 0 0)
(-1.05347e-13 0 0)
(-2.74538e-14 0 0)
(-9.8854e-14 0 0)
(-2.65657e-14 0 0)
(-8.64284e-14 0 0)
(-4.9969e-14 0 0)
(-7.2271e-14 0 0)
(-2.66899e-14 0 0)
(-4.07141e-14 0 0)
(-4.61142e-14 0 0)
(-5.09904e-14 0 0)
(-5.34417e-14 0 0)
(-4.68604e-14 0 0)
(-8.62419e-14 0 0)
(-3.01983e-14 0 0)
(-6.2794e-14 0 0)
(-4.85849e-15 0 0)
(-4.25703e-14 0 0)
(-4.62745e-15 0 0)
(-1.5934e-14 0 0)
(-2.19202e-14 0 0)
(-3.84847e-14 0 0)
(-1.18573e-14 0 0)
(-5.73406e-14 0 0)
(2.37129e-15 0 0)
(-2.30215e-14 0 0)
(-1.45927e-14 0 0)
(-1.15108e-14 0 0)
(-6.67905e-15 0 0)
(1.65111e-14 0 0)
(6.4215e-15 0 0)
(-1.97707e-14 0 0)
(7.69142e-15 0 0)
(-3.54559e-14 0 0)
(-2.391e-14 0 0)
(-6.62579e-14 0 0)
(-2.72139e-14 0 0)
(-5.38503e-14 0 0)
(-9.19263e-14 0 0)
(-6.04586e-14 0 0)
(-1.14628e-13 0 0)
(-9.53104e-14 0 0)
(-8.29381e-14 0 0)
(-6.5823e-14 0 0)
(-7.05125e-14 0 0)
(-7.57971e-14 0 0)
(-5.96768e-14 0 0)
(-1.09033e-13 0 0)
(-6.70132e-14 0 0)
(-1.24913e-13 0 0)
(-6.61695e-14 0 0)
(-1.13278e-13 0 0)
(-1.27436e-13 0 0)
(-8.74679e-14 0 0)
(-1.03446e-13 0 0)
(-1.1152e-13 0 0)
(-7.44561e-14 0 0)
(-9.47419e-14 0 0)
(-4.12295e-14 0 0)
(-1.13615e-13 0 0)
(-3.33691e-14 0 0)
(-1.02958e-13 0 0)
(-7.96519e-14 0 0)
(-1.04938e-13 0 0)
(-1.04139e-13 0 0)
(-1.197e-13 0 0)
(-1.1263e-13 0 0)
(-1.27134e-13 0 0)
(-1.54605e-13 0 0)
(-1.18421e-13 0 0)
(-1.71516e-13 0 0)
(-2.08979e-13 0 0)
(-1.7276e-13 0 0)
(-2.23608e-13 0 0)
(-1.78204e-13 0 0)
(-2.22995e-13 0 0)
(-2.01936e-13 0 0)
(-2.43983e-13 0 0)
(-2.27649e-13 0 0)
(-2.07168e-13 0 0)
(-1.75726e-13 0 0)
(-1.6084e-13 0 0)
(-1.74918e-13 0 0)
(-1.44462e-13 0 0)
(-1.34275e-13 0 0)
(-9.71223e-14 0 0)
(-1.3074e-13 0 0)
(-9.8348e-14 0 0)
(-1.24807e-13 0 0)
(-1.06457e-13 0 0)
(-1.51079e-13 0 0)
(-8.59848e-14 0 0)
(-1.85389e-13 0 0)
(-8.9813e-14 0 0)
(-1.85531e-13 0 0)
(-1.27125e-13 0 0)
(-1.37117e-13 0 0)
(-9.28059e-14 0 0)
(-1.25553e-13 0 0)
(-9.36851e-14 0 0)
(-9.05587e-14 0 0)
(-5.49606e-14 0 0)
(-7.66586e-14 0 0)
(-8.25295e-14 0 0)
(-6.38957e-14 0 0)
(-1.18634e-13 0 0)
(-6.43043e-14 0 0)
(-1.13989e-13 0 0)
(-7.1383e-14 0 0)
(-8.65352e-14 0 0)
(-8.20055e-14 0 0)
(-7.10366e-14 0 0)
(-8.86402e-14 0 0)
(-9.02922e-14 0 0)
(-1.05125e-13 0 0)
(-8.57092e-14 0 0)
(-1.12204e-13 0 0)
(-8.15526e-14 0 0)
(-8.94662e-14 0 0)
(-8.59313e-14 0 0)
(-8.69172e-14 0 0)
(-1.05249e-13 0 0)
(-8.96527e-14 0 0)
(-1.24487e-13 0 0)
(-5.08306e-14 0 0)
(-8.92796e-14 0 0)
(-2.59438e-14 0 0)
(-6.235e-14 0 0)
(-4.86732e-15 0 0)
(-6.32471e-14 0 0)
(-1.30208e-14 0 0)
(-6.83719e-14 0 0)
(-6.21813e-14 0 0)
(-5.48717e-14 0 0)
(-4.24461e-14 0 0)
(-7.39408e-14 0 0)
(-5.69768e-14 0 0)
(-1.09139e-13 0 0)
(-5.12482e-14 0 0)
(-1.09983e-13 0 0)
(-7.59217e-14 0 0)
(-1.31823e-13 0 0)
(-1.33147e-13 0 0)
(-1.15481e-13 0 0)
(-1.05809e-13 0 0)
(-8.93242e-14 0 0)
(-1.55582e-13 0 0)
(-8.17482e-14 0 0)
(-1.41726e-13 0 0)
(-7.36037e-14 0 0)
(-1.79367e-13 0 0)
(-5.87179e-14 0 0)
(-1.52278e-13 0 0)
(-6.99442e-14 0 0)
(-1.25588e-13 0 0)
(-7.04682e-14 0 0)
(-9.93516e-14 0 0)
(-8.6473e-14 0 0)
(-9.59854e-14 0 0)
(-9.16067e-14 0 0)
(-6.90115e-14 0 0)
(-6.25899e-14 0 0)
(-8.69172e-14 0 0)
(-4.23219e-14 0 0)
(-1.05657e-13 0 0)
(-2.98874e-14 0 0)
(-8.42792e-14 0 0)
(-5.12835e-14 0 0)
(-4.16466e-14 0 0)
(-2.21247e-14 0 0)
(-2.85815e-14 0 0)
(-5.2287e-14 0 0)
(-1.1342e-14 0 0)
(-1.23724e-14 0 0)
(3.96125e-15 0 0)
(-1.32249e-14 0 0)
(3.60155e-14 0 0)
(1.55521e-14 0 0)
(6.38243e-14 0 0)
(3.54651e-14 0 0)
(4.01812e-14 0 0)
(4.09807e-14 0 0)
(6.37178e-14 0 0)
(5.87086e-14 0 0)
(3.69128e-14 0 0)
(5.5973e-14 0 0)
(3.24184e-14 0 0)
(2.01639e-15 0 0)
(3.21164e-14 0 0)
(3.06599e-14 0 0)
(-1.8394e-14 0 0)
(4.69755e-14 0 0)
(-2.48625e-16 0 0)
(-2.84236e-16 0 0)
(-1.66089e-14 0 0)
(-2.62278e-14 0 0)
(9.92081e-15 0 0)
(-2.73114e-14 0 0)
(4.15932e-14 0 0)
(-1.16616e-14 0 0)
(3.7934e-14 0 0)
(-1.49835e-14 0 0)
(-1.47427e-15 0 0)
(2.53663e-14 0 0)
(3.65928e-14 0 0)
(-2.65651e-14 0 0)
(9.69355e-14 0 0)
(1.91316e-14 0 0)
(5.98986e-14 0 0)
(1.51525e-14 0 0)
(4.79349e-14 0 0)
(3.54917e-14 0 0)
(6.43218e-14 0 0)
(7.10811e-14 0 0)
(8.6011e-14 0 0)
(6.24834e-14 0 0)
(2.13075e-14 0 0)
(8.20675e-14 0 0)
(2.18494e-14 0 0)
(8.93684e-14 0 0)
(4.58568e-14 0 0)
(7.66584e-14 0 0)
(2.48338e-14 0 0)
(9.02208e-14 0 0)
(4.90455e-14 0 0)
(8.80716e-14 0 0)
(6.11689e-14 0 0)
(4.53594e-14 0 0)
(7.79997e-14 0 0)
(5.6846e-15 0 0)
(1.16804e-13 0 0)
(5.3806e-14 0 0)
(9.64916e-14 0 0)
(5.94637e-14 0 0)
(9.46975e-14 0 0)
(6.92247e-14 0 0)
(9.0985e-14 0 0)
(8.35509e-14 0 0)
(1.07754e-13 0 0)
(6.36649e-14 0 0)
(1.49684e-13 0 0)
(8.71838e-14 0 0)
(1.40154e-13 0 0)
(1.24327e-13 0 0)
(1.5909e-13 0 0)
(1.60485e-13 0 0)
(8.49991e-14 0 0)
(1.85034e-13 0 0)
(1.26228e-13 0 0)
(1.53264e-13 0 0)
(1.29177e-13 0 0)
(1.39071e-13 0 0)
(1.0612e-13 0 0)
(1.20837e-13 0 0)
(1.08225e-13 0 0)
(1.19087e-13 0 0)
(6.61961e-14 0 0)
(1.14921e-13 0 0)
(7.82041e-14 0 0)
(8.64377e-14 0 0)
(1.19238e-13 0 0)
(1.18661e-13 0 0)
(6.98021e-14 0 0)
(1.19602e-13 0 0)
(9.72112e-14 0 0)
(9.05764e-14 0 0)
(1.21139e-13 0 0)
(5.727e-14 0 0)
(1.26459e-13 0 0)
(6.79014e-14 0 0)
(8.0229e-14 0 0)
(6.73329e-14 0 0)
(3.31824e-14 0 0)
(4.83347e-14 0 0)
(3.21344e-14 0 0)
(4.45066e-14 0 0)
(3.56072e-14 0 0)
(6.74748e-14 0 0)
(6.17284e-14 0 0)
(7.07878e-14 0 0)
(6.4464e-14 0 0)
(6.01741e-14 0 0)
(9.84545e-14 0 0)
(7.71827e-14 0 0)
(6.01743e-14 0 0)
(9.26013e-14 0 0)
(5.14523e-14 0 0)
(9.7353e-14 0 0)
(4.321e-14 0 0)
(3.69128e-14 0 0)
(5.57597e-14 0 0)
(4.6363e-14 0 0)
(4.6061e-14 0 0)
(7.53619e-14 0 0)
(7.47224e-14 0 0)
(3.52431e-14 0 0)
(8.70768e-14 0 0)
(3.61224e-14 0 0)
(7.61522e-14 0 0)
(2.67431e-14 0 0)
(7.54073e-15 0 0)
(2.52242e-14 0 0)
(2.12541e-14 0 0)
(4.43379e-14 0 0)
(9.61005e-15 0 0)
(2.76844e-14 0 0)
(-2.28171e-14 0 0)
(2.10229e-14 0 0)
(-7.31323e-14 0 0)
(7.38931e-15 0 0)
(-7.90031e-14 0 0)
(-2.677e-14 0 0)
(-7.62145e-14 0 0)
(-6.09646e-14 0 0)
(-4.3272e-14 0 0)
(-5.17542e-14 0 0)
(-5.679e-14 0 0)
(-2.28085e-14 0 0)
(-2.653e-14 0 0)
(-6.12219e-14 0 0)
(-9.56589e-15 0 0)
(-1.61647e-14 0 0)
(-3.23303e-15 0 0)
(-3.0287e-15 0 0)
(-2.36612e-14 0 0)
(-4.61318e-14 0 0)
(-3.05977e-14 0 0)
(-1.48949e-14 0 0)
(3.01084e-15 0 0)
(-5.92324e-14 0 0)
(-6.022e-15 0 0)
(-4.21439e-14 0 0)
(-1.28697e-14 0 0)
(-1.58185e-14 0 0)
(2.89278e-14 0 0)
(-2.43359e-14 0 0)
(1.49124e-14 0 0)
(-1.68929e-14 0 0)
(4.33074e-14 0 0)
(1.66801e-14 0 0)
(6.66132e-14 0 0)
(2.62032e-15 0 0)
(7.58502e-14 0 0)
(-3.16162e-15 0 0)
(5.27309e-14 0 0)
(8.00258e-15 0 0)
(-1.41842e-14 0 0)
(4.25415e-15 0 0)
(-9.15708e-14 0 0)
(3.91594e-14 0 0)
(-6.23498e-14 0 0)
(1.5152e-14 0 0)
(-6.04669e-14 0 0)
(-2.25509e-14 0 0)
(-3.78453e-14 0 0)
(-4.65415e-15 0 0)
(-5.8433e-14 0 0)
(1.5836e-14 0 0)
(-3.4248e-14 0 0)
(2.54551e-14 0 0)
(6.27958e-15 0 0)
(7.05301e-14 0 0)
(4.4631e-14 0 0)
(6.0103e-14 0 0)
(5.13633e-14 0 0)
(1.14932e-14 0 0)
(5.89038e-14 0 0)
(3.01448e-14 0 0)
(2.88214e-14 0 0)
(3.9435e-14 0 0)
(3.01448e-14 0 0)
(-1.382e-14 0 0)
(2.60946e-14 0 0)
(-1.17238e-14 0 0)
(2.47889e-14 0 0)
(-2.67962e-14 0 0)
(-3.76593e-15 0 0)
(-2.29151e-14 0 0)
(-3.87156e-14 0 0)
(-3.28005e-14 0 0)
(-1.03563e-14 0 0)
(-1.09832e-13 0 0)
(1.91754e-14 0 0)
(-7.17824e-14 0 0)
(-2.53487e-14 0 0)
(-5.47648e-14 0 0)
(4.06762e-15 0 0)
(-3.00115e-14 0 0)
(-3.81827e-14 0 0)
(-6.73246e-15 0 0)
(-3.7037e-14 0 0)
(-1.39267e-14 0 0)
(-5.05816e-14 0 0)
(-3.00228e-15 0 0)
(-2.68317e-14 0 0)
(-4.03587e-14 0 0)
(2.84202e-15 0 0)
(-8.92624e-15 0 0)
(-3.16369e-14 0 0)
(-3.67262e-14 0 0)
(-9.0292e-14 0 0)
(-4.85302e-14 0 0)
(-1.31033e-13 0 0)
(-3.24099e-14 0 0)
(-1.11937e-13 0 0)
(-5.90283e-14 0 0)
(-6.17373e-14 0 0)
(-5.70654e-14 0 0)
(-3.40351e-14 0 0)
(-5.71275e-14 0 0)
(-1.64847e-14 0 0)
(-4.46487e-14 0 0)
(-3.42926e-14 0 0)
(-5.74118e-14 0 0)
(-4.91961e-14 0 0)
(-1.13777e-14 0 0)
(-1.37935e-14 0 0)
(-3.66727e-14 0 0)
(-3.11766e-15 0 0)
(-1.8252e-14 0 0)
(-5.37791e-14 0 0)
(-7.83389e-15 0 0)
(-9.48749e-14 0 0)
(1.02848e-14 0 0)
(-8.64017e-14 0 0)
(-2.12899e-14 0 0)
(-8.26093e-14 0 0)
(-4.60877e-14 0 0)
(-1.01199e-13 0 0)
(-6.03962e-14 0 0)
(-9.72376e-14 0 0)
(-2.67255e-14 0 0)
(-6.44816e-14 0 0)
(-5.06352e-14 0 0)
(-6.39931e-14 0 0)
(-2.70096e-14 0 0)
(-3.15748e-14 0 0)
(-6.12486e-14 0 0)
(-4.09629e-14 0 0)
(-7.05833e-14 0 0)
(-1.73286e-14 0 0)
(-8.03978e-14 0 0)
(-2.46026e-14 0 0)
(-4.05098e-14 0 0)
(-1.78348e-14 0 0)
(-5.75182e-14 0 0)
(1.6893e-14 0 0)
(-1.93534e-14 0 0)
(-1.9904e-14 0 0)
(-3.27561e-14 0 0)
(-4.027e-14 0 0)
(-6.64534e-14 0 0)
(-1.58185e-14 0 0)
(-2.27463e-14 0 0)
(-3.68683e-14 0 0)
(-1.64491e-14 0 0)
(-2.28972e-14 0 0)
(-9.29922e-15 0 0)
(1.53743e-14 0 0)
(5.67548e-15 0 0)
(-1.75503e-14 0 0)
(6.05742e-15 0 0)
(3.61485e-15 0 0)
(2.50999e-14 0 0)
(6.90111e-15 0 0)
(-7.51394e-15 0 0)
(1.51701e-14 0 0)
(-2.00106e-14 0 0)
(2.58014e-14 0 0)
(-3.75697e-14 0 0)
(3.66016e-14 0 0)
(-4.62916e-14 0 0)
(4.25791e-14 0 0)
(-2.16359e-14 0 0)
(2.15471e-14 0 0)
(3.35733e-15 0 0)
(1.65912e-14 0 0)
(1.06405e-14 0 0)
(3.95682e-14 0 0)
(4.08918e-14 0 0)
(7.37898e-14 0 0)
(9.18465e-14 0 0)
(5.80692e-14 0 0)
(9.50706e-14 0 0)
(4.54748e-14 0 0)
(9.7966e-14 0 0)
(5.69767e-14 0 0)
(1.12426e-13 0 0)
(7.33014e-14 0 0)
(9.56656e-14 0 0)
(5.99878e-14 0 0)
(1.19984e-13 0 0)
(4.81839e-14 0 0)
(9.59319e-14 0 0)
(5.58755e-14 0 0)
(5.9721e-14 0 0)
(5.71456e-14 0 0)
(8.96437e-14 0 0)
(7.06547e-14 0 0)
(7.76444e-14 0 0)
(6.59472e-14 0 0)
(3.18324e-14 0 0)
(6.40731e-14 0 0)
(2.68409e-14 0 0)
(4.03143e-14 0 0)
(7.46089e-15 0 0)
(4.15489e-14 0 0)
(1.96555e-14 0 0)
(-1.22566e-15 0 0)
(3.62465e-14 0 0)
(-2.72667e-15 0 0)
(9.64566e-15 0 0)
(-6.67021e-15 0 0)
(2.8919e-14 0 0)
(7.3009e-15 0 0)
(2.50022e-14 0 0)
(2.63079e-14 0 0)
(6.15062e-14 0 0)
(5.48717e-14 0 0)
(4.0119e-14 0 0)
(4.77663e-14 0 0)
(6.23766e-14 0 0)
(5.3495e-14 0 0)
(3.2241e-14 0 0)
(8.32666e-14 0 0)
(4.96049e-14 0 0)
(7.52908e-14 0 0)
(5.49249e-14 0 0)
(7.77177e-15 0 0)
(1.02371e-13 0 0)
(4.98802e-14 0 0)
(8.87112e-14 0 0)
(6.66756e-14 0 0)
(1.17985e-13 0 0)
(5.99521e-14 0 0)
(6.43574e-14 0 0)
(2.796e-14 0 0)
(7.13562e-14 0 0)
(4.75087e-14 0 0)
(6.41264e-14 0 0)
(6.94466e-14 0 0)
(1.3385e-14 0 0)
(5.86019e-14 0 0)
(1.40688e-14 0 0)
(4.1469e-14 0 0)
(9.09505e-15 0 0)
(3.9284e-14 0 0)
(-2.73735e-14 0 0)
(2.2382e-14 0 0)
(-3.93195e-14 0 0)
(1.72038e-14 0 0)
(-5.56709e-14 0 0)
(-3.15322e-15 0 0)
(-7.08231e-14 0 0)
(1.24698e-14 0 0)
(-5.78824e-14 0 0)
(-1.6699e-15 0 0)
(-5.29531e-14 0 0)
(-1.62271e-14 0 0)
(-1.84651e-14 0 0)
(2.60146e-14 0 0)
(1.09246e-14 0 0)
(-1.35002e-14 0 0)
(3.68326e-14 0 0)
(8.82852e-15 0 0)
(5.9331e-15 0 0)
(7.84257e-15 0 0)
(1.24788e-14 0 0)
(-3.07663e-14 0 0)
(4.28086e-15 0 0)
(-4.48529e-14 0 0)
(-2.89458e-14 0 0)
(-4.65582e-14 0 0)
(-1.15375e-14 0 0)
(-3.14948e-14 0 0)
(-4.35384e-14 0 0)
(-2.13785e-14 0 0)
(-3.26849e-14 0 0)
(-6.70596e-15 0 0)
(-7.07963e-14 0 0)
(4.17972e-14 0 0)
(-4.00211e-14 0 0)
(-2.31726e-14 0 0)
(-3.23296e-14 0 0)
(-3.80155e-15 0 0)
(-1.7799e-14 0 0)
(8.30442e-15 0 0)
(-2.98516e-14 0 0)
(1.84473e-14 0 0)
(-2.77466e-14 0 0)
(-7.52291e-15 0 0)
(-4.17442e-14 0 0)
(-1.35182e-14 0 0)
(-1.27898e-14 0 0)
(-1.35891e-14 0 0)
(-8.02046e-15 0 0)
(-6.57871e-14 0 0)
(-2.20094e-14 0 0)
(-1.19495e-13 0 0)
(1.33666e-14 0 0)
(-7.60544e-14 0 0)
(-2.65834e-14 0 0)
(-7.37363e-14 0 0)
(-1.43176e-14 0 0)
(-6.19414e-14 0 0)
(3.29494e-15 0 0)
(-4.05009e-14 0 0)
(-1.46372e-14 0 0)
(-3.69037e-14 0 0)
(2.4478e-14 0 0)
(-4.35221e-16 0 0)
(9.8599e-16 0 0)
(8.41106e-15 0 0)
(2.46291e-14 0 0)
(8.33119e-15 0 0)
(2.3439e-14 0 0)
(3.03401e-14 0 0)
(-1.06046e-14 0 0)
(6.96949e-14 0 0)
(-5.92854e-14 0 0)
(9.79656e-14 0 0)
(-3.35018e-14 0 0)
(5.79179e-14 0 0)
(-1.97705e-14 0 0)
(7.1125e-14 0 0)
(-1.15324e-16 0 0)
(4.64961e-14 0 0)
(-1.89448e-14 0 0)
(5.97476e-14 0 0)
(-6.88333e-15 0 0)
(4.60966e-15 0 0)
(-1.03472e-14 0 0)
(3.54026e-14 0 0)
(-2.57455e-16 0 0)
(7.98469e-15 0 0)
(1.37935e-14 0 0)
(4.1007e-14 0 0)
(4.1096e-14 0 0)
(7.14992e-15 0 0)
(5.02175e-14 0 0)
(2.85194e-14 0 0)
(4.72333e-14 0 0)
(1.4957e-14 0 0)
(3.99857e-14 0 0)
(1.41399e-14 0 0)
(6.55653e-14 0 0)
(4.85834e-14 0 0)
(1.13296e-13 0 0)
(4.68783e-14 0 0)
(1.91225e-13 0 0)
(1.97212e-13 0 0)
(5.39364e-13 0 0)
(8.19318e-13 0 0)
(1.54608e-12 0 0)
(2.557e-12 0 0)
(4.47166e-12 0 0)
(7.60037e-12 0 0)
(1.28656e-11 0 0)
(2.15807e-11 0 0)
(3.60214e-11 0 0)
(5.99271e-11 0 0)
(9.90221e-11 0 0)
(1.62864e-10 0 0)
(2.6659e-10 0 0)
(4.34234e-10 0 0)
(7.03757e-10 0 0)
(1.13498e-09 0 0)
(1.82133e-09 0 0)
(2.90805e-09 0 0)
(4.61964e-09 0 0)
(7.30139e-09 0 0)
(1.14806e-08 0 0)
(1.79586e-08 0 0)
(2.79455e-08 0 0)
(4.3258e-08 0 0)
(6.66066e-08 0 0)
(1.02011e-07 0 0)
(1.55397e-07 0 0)
(2.3544e-07 0 0)
(3.5477e-07 0 0)
(5.31644e-07 0 0)
(7.92296e-07 0 0)
(1.17416e-06 0 0)
(1.73031e-06 0 0)
(2.53546e-06 0 0)
(3.6941e-06 0 0)
(5.35136e-06 0 0)
(7.70732e-06 0 0)
(1.10359e-05 0 0)
(1.57095e-05 0 0)
(2.22305e-05 0 0)
(3.12715e-05 0 0)
(4.37267e-05 0 0)
(6.07751e-05 0 0)
(8.39595e-05 0 0)
(0.000115282 0 0)
(0.000157323 0 0)
(0.000213373 0 0)
(0.000287605 0 0)
(0.000385256 0 0)
(0.000512845 0 0)
(0.00067842 0 0)
(0.000891824 0 0)
(0.00116499 0 0)
(0.00151224 0 0)
(0.00195064 0 0)
(0.00250029 0 0)
(0.00318468 0 0)
(0.00403096 0 0)
(0.00507024 0 0)
(0.00633784 0 0)
(0.00787339 0 0)
(0.00972102 0 0)
(0.0119293 0 0)
(0.0145513 0 0)
(0.0176442 0 0)
(0.0212694 0 0)
(0.0254916 0 0)
(0.0303791 0 0)
(0.0360024 0 0)
(0.0424347 0 0)
(0.04975 0 0)
(0.0580236 0 0)
(0.0673306 0 0)
(0.0777458 0 0)
(0.0893426 0 0)
(0.102193 0 0)
(0.116365 0 0)
(0.131927 0 0)
(0.148941 0 0)
(0.167468 0 0)
(0.187562 0 0)
(0.209276 0 0)
(0.232657 0 0)
(0.257751 0 0)
(0.284595 0 0)
(0.313227 0 0)
(0.343678 0 0)
(0.375976 0 0)
(0.410148 0 0)
(0.446216 0 0)
(0.484198 0 0)
(0.524113 0 0)
(0.565974 0 0)
(0.609795 0 0)
(0.655587 0 0)
(0.70336 0 0)
(0.753122 0 0)
(0.804881 0 0)
(0.858643 0 0)
(0.914414 0 0)
(0.9722 0 0)
(1.03201 0 0)
(1.09384 0 0)
(1.1577 0 0)
(1.22359 0 0)
(1.29152 0 0)
(1.3615 0 0)
(1.43352 0 0)
(1.50759 0 0)
(1.58371 0 0)
(1.6619 0 0)
(1.74215 0 0)
(1.82447 0 0)
(1.90886 0 0)
(1.99533 0 0)
(2.08389 0 0)
(2.17453 0 0)
(2.26727 0 0)
(2.36211 0 0)
(2.45906 0 0)
(2.55812 0 0)
(2.6593 0 0)
(2.7626 0 0)
(2.86804 0 0)
(2.97561 0 0)
(3.08533 0 0)
(3.1972 0 0)
(3.31123 0 0)
(3.42743 0 0)
(3.5458 0 0)
(3.66636 0 0)
(3.7891 0 0)
(3.91404 0 0)
(4.04119 0 0)
(4.17056 0 0)
(4.30215 0 0)
(4.43597 0 0)
(4.57203 0 0)
(4.71035 0 0)
(4.85092 0 0)
(4.99376 0 0)
(5.13888 0 0)
(5.28629 0 0)
(5.436 0 0)
(5.58802 0 0)
(5.74235 0 0)
(5.89901 0 0)
(6.05801 0 0)
(6.21936 0 0)
(6.38307 0 0)
(6.54915 0 0)
(6.71761 0 0)
(6.88846 0 0)
(7.06172 0 0)
(7.23739 0 0)
(7.41548 0 0)
(7.59601 0 0)
(7.77899 0 0)
(7.96443 0 0)
(8.15234 0 0)
(8.34273 0 0)
(8.53563 0 0)
(8.73103 0 0)
(8.92895 0 0)
(9.1294 0 0)
(9.33241 0 0)
(9.53797 0 0)
(9.74611 0 0)
(9.95684 0 0)
(10.1702 0 0)
(10.3861 0 0)
(10.6047 0 0)
(10.8259 0 0)
(11.0498 0 0)
(11.2764 0 0)
(11.5056 0 0)
(11.7376 0 0)
(11.9723 0 0)
(12.2097 0 0)
(12.4499 0 0)
(12.6929 0 0)
(12.9387 0 0)
(13.1873 0 0)
(13.4387 0 0)
(13.693 0 0)
(13.9501 0 0)
(14.2102 0 0)
(14.473 0 0)
(14.7391 0 0)
(15.0077 0 0)
(15.2798 0 0)
(15.5542 0 0)
(15.8325 0 0)
(16.1128 0 0)
(16.3973 0 0)
(16.6836 0 0)
(16.9745 0 0)
(17.2669 0 0)
(17.5643 0 0)
(17.8628 0 0)
(18.1667 0 0)
(18.4716 0 0)
(18.7822 0 0)
(19.0934 0 0)
(19.4107 0 0)
(19.7285 0 0)
(20.0527 0 0)
(20.377 0 0)
(20.7081 0 0)
(21.0389 0 0)
(21.3766 0 0)
(21.7133 0 0)
(22.0563 0 0)
(22.4002 0 0)
(22.7454 0 0)
(23.0927 0 0)
(23.4429 0 0)
(23.7965 0 0)
(24.1539 0 0)
(24.5149 0 0)
(24.8794 0 0)
(25.2474 0 0)
(25.6186 0 0)
(25.9932 0 0)
(26.371 0 0)
(26.7524 0 0)
(27.137 0 0)
(27.5255 0 0)
(27.9167 0 0)
(28.3125 0 0)
(28.7102 0 0)
(29.1137 0 0)
(29.5174 0 0)
(29.9292 0 0)
(30.3383 0 0)
(30.7593 0 0)
(31.173 0 0)
(31.604 0 0)
(32.0216 0 0)
(32.4633 0 0)
(32.8846 0 0)
(33.337 0 0)
(33.7622 0 0)
(34.2254 0 0)
(34.6543 0 0)
(35.1285 0 0)
(35.5612 0 0)
(36.0465 0 0)
(36.4829 0 0)
(36.9794 0 0)
(37.4195 0 0)
(37.9273 0 0)
(38.3712 0 0)
(38.8904 0 0)
(39.338 0 0)
(39.8687 0 0)
(40.32 0 0)
(40.8624 0 0)
(41.3174 0 0)
(41.8715 0 0)
(42.3301 0 0)
(42.8961 0 0)
(43.3583 0 0)
(43.9363 0 0)
(44.4021 0 0)
(44.9922 0 0)
(45.4614 0 0)
(46.0637 0 0)
(46.5364 0 0)
(47.151 0 0)
(47.627 0 0)
(48.254 0 0)
(48.7332 0 0)
(49.3728 0 0)
(49.8552 0 0)
(50.5073 0 0)
(50.9927 0 0)
(51.6575 0 0)
(52.1459 0 0)
(52.8234 0 0)
(53.3145 0 0)
(54.0048 0 0)
(54.4987 0 0)
(55.2016 0 0)
(55.698 0 0)
(56.4135 0 0)
(56.9125 0 0)
(57.6405 0 0)
(58.1417 0 0)
(58.8821 0 0)
(59.3854 0 0)
(60.1382 0 0)
(60.6432 0 0)
(61.4083 0 0)
(61.9146 0 0)
(62.6919 0 0)
(63.199 0 0)
(63.9884 0 0)
(64.4957 0 0)
(65.297 0 0)
(65.8038 0 0)
(66.617 0 0)
(67.1223 0 0)
(67.947 0 0)
(68.4496 0 0)
(69.2854 0 0)
(69.7829 0 0)
(70.6294 0 0)
(71.1149 0 0)
(71.9701 0 0)
(72.423 0 0)
(73.957 0 0)
)
;

boundaryField
{
    sideLeft
    {
        type            symmetryPlane;
    }
    sideRight
    {
        type            calculated;
        value           uniform (73.5972 0 0);
    }
    topbottom
    {
        type            empty;
    }
    frontback
    {
        type            empty;
    }
}


// ************************************************************************* //
