/*--------------------------------*- C++ -*----------------------------------*\
| =========                 |                                                 |
| \\      /  F ield         | OpenFOAM: The Open Source CFD Toolbox           |
|  \\    /   O peration     | Version:  2.4.0                                 |
|   \\  /    A nd           | Web:      www.OpenFOAM.org                      |
|    \\/     M anipulation  |                                                 |
\*---------------------------------------------------------------------------*/
FoamFile
{
    version     2.0;
    format      ascii;
    class       volVectorField;
    location    "0.08";
    object      U.waterMean;
}
// * * * * * * * * * * * * * * * * * * * * * * * * * * * * * * * * * * * * * //

dimensions      [0 1 -1 0 0 0 0];

internalField   nonuniform List<vector> 
1000
(
(-8.10547e-14 0 0)
(-2.9683e-14 0 0)
(-7.31058e-14 0 0)
(-3.66553e-14 0 0)
(-8.47319e-14 0 0)
(-9.86797e-15 0 0)
(-6.8585e-14 0 0)
(-3.26939e-14 0 0)
(-4.57145e-14 0 0)
(-4.4782e-14 0 0)
(-5.62839e-14 0 0)
(-7.75555e-14 0 0)
(-2.9168e-14 0 0)
(-9.1269e-14 0 0)
(6.36805e-15 0 0)
(-5.54755e-14 0 0)
(2.88647e-15 0 0)
(-4.12825e-14 0 0)
(7.97564e-15 0 0)
(-6.94286e-14 0 0)
(1.49477e-14 0 0)
(-5.70564e-14 0 0)
(-4.80239e-14 0 0)
(-7.1747e-14 0 0)
(-9.81259e-14 0 0)
(-8.62954e-14 0 0)
(-9.77263e-14 0 0)
(-8.51054e-14 0 0)
(-1.43183e-13 0 0)
(-5.73234e-14 0 0)
(-1.1191e-13 0 0)
(-1.0024e-13 0 0)
(-8.48655e-14 0 0)
(-9.436e-14 0 0)
(-4.63809e-14 0 0)
(-1.53344e-13 0 0)
(3.10416e-16 0 0)
(-1.03641e-13 0 0)
(-2.86529e-14 0 0)
(-9.90938e-14 0 0)
(-2.62726e-14 0 0)
(-8.69702e-14 0 0)
(-4.85657e-14 0 0)
(-7.14094e-14 0 0)
(-2.6601e-14 0 0)
(-4.22063e-14 0 0)
(-4.69757e-14 0 0)
(-4.94716e-14 0 0)
(-5.11235e-14 0 0)
(-4.76331e-14 0 0)
(-8.8791e-14 0 0)
(-2.99496e-14 0 0)
(-6.09289e-14 0 0)
(-2.46929e-15 0 0)
(-4.1842e-14 0 0)
(-7.54068e-15 0 0)
(-1.90782e-14 0 0)
(-1.99573e-14 0 0)
(-3.71258e-14 0 0)
(-1.4282e-14 0 0)
(-5.88594e-14 0 0)
(2.89532e-15 0 0)
(-2.21689e-14 0 0)
(-1.47171e-14 0 0)
(-9.90325e-15 0 0)
(-6.72346e-15 0 0)
(1.44683e-14 0 0)
(5.46227e-15 0 0)
(-2.00194e-14 0 0)
(8.94375e-15 0 0)
(-3.56424e-14 0 0)
(-2.52334e-14 0 0)
(-6.61424e-14 0 0)
(-2.71518e-14 0 0)
(-5.32197e-14 0 0)
(-9.11802e-14 0 0)
(-6.11158e-14 0 0)
(-1.14726e-13 0 0)
(-9.41824e-14 0 0)
(-8.1295e-14 0 0)
(-6.58408e-14 0 0)
(-7.29817e-14 0 0)
(-7.48645e-14 0 0)
(-5.83889e-14 0 0)
(-1.10942e-13 0 0)
(-6.84698e-14 0 0)
(-1.23901e-13 0 0)
(-6.49171e-14 0 0)
(-1.13571e-13 0 0)
(-1.2851e-13 0 0)
(-8.85249e-14 0 0)
(-1.04476e-13 0 0)
(-1.10596e-13 0 0)
(-7.18271e-14 0 0)
(-9.53814e-14 0 0)
(-4.34233e-14 0 0)
(-1.14513e-13 0 0)
(-3.22589e-14 0 0)
(-1.01474e-13 0 0)
(-7.79733e-14 0 0)
(-1.0556e-13 0 0)
(-1.05436e-13 0 0)
(-1.2089e-13 0 0)
(-1.13039e-13 0 0)
(-1.25766e-13 0 0)
(-1.54507e-13 0 0)
(-1.20091e-13 0 0)
(-1.72511e-13 0 0)
(-2.0643e-13 0 0)
(-1.71863e-13 0 0)
(-2.23936e-13 0 0)
(-1.77831e-13 0 0)
(-2.23901e-13 0 0)
(-2.01972e-13 0 0)
(-2.44613e-13 0 0)
(-2.29168e-13 0 0)
(-2.05898e-13 0 0)
(-1.73026e-13 0 0)
(-1.61382e-13 0 0)
(-1.76312e-13 0 0)
(-1.44933e-13 0 0)
(-1.35865e-13 0 0)
(-9.53104e-14 0 0)
(-1.27569e-13 0 0)
(-9.96004e-14 0 0)
(-1.27764e-13 0 0)
(-1.07088e-13 0 0)
(-1.50217e-13 0 0)
(-8.40308e-14 0 0)
(-1.85478e-13 0 0)
(-9.28505e-14 0 0)
(-1.86224e-13 0 0)
(-1.25562e-13 0 0)
(-1.36753e-13 0 0)
(-9.32411e-14 0 0)
(-1.23217e-13 0 0)
(-9.4067e-14 0 0)
(-9.21485e-14 0 0)
(-5.44277e-14 0 0)
(-7.71205e-14 0 0)
(-8.33467e-14 0 0)
(-6.28831e-14 0 0)
(-1.17115e-13 0 0)
(-6.61961e-14 0 0)
(-1.15454e-13 0 0)
(-7.00863e-14 0 0)
(-8.60112e-14 0 0)
(-8.46079e-14 0 0)
(-7.09033e-14 0 0)
(-8.76188e-14 0 0)
(-9.00257e-14 0 0)
(-1.04095e-13 0 0)
(-8.70681e-14 0 0)
(-1.1295e-13 0 0)
(-8.30092e-14 0 0)
(-9.22551e-14 0 0)
(-8.46435e-14 0 0)
(-8.54428e-14 0 0)
(-1.06528e-13 0 0)
(-9.03899e-14 0 0)
(-1.22968e-13 0 0)
(-5.07329e-14 0 0)
(-8.98125e-14 0 0)
(-2.61659e-14 0 0)
(-6.28918e-14 0 0)
(-1.24355e-15 0 0)
(-6.21902e-14 0 0)
(-1.48683e-14 0 0)
(-6.91003e-14 0 0)
(-6.18971e-14 0 0)
(-5.4774e-14 0 0)
(-4.44178e-14 0 0)
(-7.48556e-14 0 0)
(-5.47741e-14 0 0)
(-1.08286e-13 0 0)
(-5.35752e-14 0 0)
(-1.10622e-13 0 0)
(-7.5522e-14 0 0)
(-1.31308e-13 0 0)
(-1.32117e-13 0 0)
(-1.16271e-13 0 0)
(-1.07292e-13 0 0)
(-8.72103e-14 0 0)
(-1.54898e-13 0 0)
(-8.41285e-14 0 0)
(-1.41478e-13 0 0)
(-7.36303e-14 0 0)
(-1.79172e-13 0 0)
(-5.6382e-14 0 0)
(-1.52615e-13 0 0)
(-7.14452e-14 0 0)
(-1.24522e-13 0 0)
(-7.0939e-14 0 0)
(-1.00018e-13 0 0)
(-8.50697e-14 0 0)
(-9.33831e-14 0 0)
(-9.11981e-14 0 0)
(-6.98464e-14 0 0)
(-6.3185e-14 0 0)
(-8.9857e-14 0 0)
(-4.13804e-14 0 0)
(-1.02984e-13 0 0)
(-3.15038e-14 0 0)
(-8.55759e-14 0 0)
(-5.17542e-14 0 0)
(-4.14779e-14 0 0)
(-1.98687e-14 0 0)
(-2.69028e-14 0 0)
(-5.274e-14 0 0)
(-1.2097e-14 0 0)
(-1.39178e-14 0 0)
(2.05166e-15 0 0)
(-1.45128e-14 0 0)
(3.59978e-14 0 0)
(1.62449e-14 0 0)
(6.49079e-14 0 0)
(3.50743e-14 0 0)
(4.03233e-14 0 0)
(4.35741e-14 0 0)
(6.36912e-14 0 0)
(5.84155e-14 0 0)
(3.78986e-14 0 0)
(5.50493e-14 0 0)
(3.07042e-14 0 0)
(2.8868e-15 0 0)
(3.11838e-14 0 0)
(3.03135e-14 0 0)
(-1.77101e-14 0 0)
(4.67979e-14 0 0)
(2.57637e-16 0 0)
(-1.09248e-15 0 0)
(-1.67155e-14 0 0)
(-2.6361e-14 0 0)
(1.03383e-14 0 0)
(-2.54462e-14 0 0)
(4.24903e-14 0 0)
(-1.2008e-14 0 0)
(3.79162e-14 0 0)
(-1.52411e-14 0 0)
(-1.77625e-15 0 0)
(2.66541e-14 0 0)
(3.6655e-14 0 0)
(-2.87767e-14 0 0)
(9.6669e-14 0 0)
(2.08369e-14 0 0)
(6.04404e-14 0 0)
(1.41755e-14 0 0)
(4.67803e-14 0 0)
(3.48788e-14 0 0)
(6.53076e-14 0 0)
(7.17117e-14 0 0)
(8.52383e-14 0 0)
(6.16929e-14 0 0)
(2.12365e-14 0 0)
(8.18099e-14 0 0)
(2.25599e-14 0 0)
(8.90042e-14 0 0)
(4.55459e-14 0 0)
(7.89588e-14 0 0)
(2.57131e-14 0 0)
(8.99277e-14 0 0)
(4.98005e-14 0 0)
(8.89598e-14 0 0)
(6.02451e-14 0 0)
(4.35475e-14 0 0)
(7.72003e-14 0 0)
(5.16058e-15 0 0)
(1.14628e-13 0 0)
(5.35573e-14 0 0)
(9.86055e-14 0 0)
(6.10624e-14 0 0)
(9.53991e-14 0 0)
(6.79813e-14 0 0)
(9.0461e-14 0 0)
(8.44569e-14 0 0)
(1.06999e-13 0 0)
(6.32652e-14 0 0)
(1.48334e-13 0 0)
(8.59581e-14 0 0)
(1.41256e-13 0 0)
(1.27409e-13 0 0)
(1.606e-13 0 0)
(1.58415e-13 0 0)
(8.52389e-14 0 0)
(1.86677e-13 0 0)
(1.25686e-13 0 0)
(1.52056e-13 0 0)
(1.29648e-13 0 0)
(1.40297e-13 0 0)
(1.05906e-13 0 0)
(1.20481e-13 0 0)
(1.08615e-13 0 0)
(1.19016e-13 0 0)
(6.44641e-14 0 0)
(1.14255e-13 0 0)
(8.12062e-14 0 0)
(8.93865e-14 0 0)
(1.17604e-13 0 0)
(1.15152e-13 0 0)
(6.90471e-14 0 0)
(1.22346e-13 0 0)
(9.78329e-14 0 0)
(8.98126e-14 0 0)
(1.20899e-13 0 0)
(5.81404e-14 0 0)
(1.28279e-13 0 0)
(6.5903e-14 0 0)
(7.85326e-14 0 0)
(6.71819e-14 0 0)
(3.3138e-14 0 0)
(4.88942e-14 0 0)
(3.32801e-14 0 0)
(4.40625e-14 0 0)
(3.58381e-14 0 0)
(6.81232e-14 0 0)
(6.1764e-14 0 0)
(7.14539e-14 0 0)
(6.47038e-14 0 0)
(5.88419e-14 0 0)
(9.6163e-14 0 0)
(7.84173e-14 0 0)
(6.22082e-14 0 0)
(9.30187e-14 0 0)
(5.1852e-14 0 0)
(9.70511e-14 0 0)
(4.29346e-14 0 0)
(3.70904e-14 0 0)
(5.48716e-14 0 0)
(4.57323e-14 0 0)
(4.66294e-14 0 0)
(7.56373e-14 0 0)
(7.37454e-14 0 0)
(3.59803e-14 0 0)
(8.84801e-14 0 0)
(3.60336e-14 0 0)
(7.59213e-14 0 0)
(2.69563e-14 0 0)
(6.80354e-15 0 0)
(2.40785e-14 0 0)
(2.11653e-14 0 0)
(4.53681e-14 0 0)
(9.09491e-15 0 0)
(2.66009e-14 0 0)
(-2.08809e-14 0 0)
(2.10407e-14 0 0)
(-7.40027e-14 0 0)
(9.12126e-15 0 0)
(-7.83548e-14 0 0)
(-2.70275e-14 0 0)
(-7.62056e-14 0 0)
(-6.2368e-14 0 0)
(-4.36539e-14 0 0)
(-5.29799e-14 0 0)
(-5.64792e-14 0 0)
(-2.01973e-14 0 0)
(-2.6601e-14 0 0)
(-6.24121e-14 0 0)
(-9.4149e-15 0 0)
(-1.44328e-14 0 0)
(-2.93105e-15 0 0)
(-3.97905e-15 0 0)
(-2.23822e-14 0 0)
(-4.52969e-14 0 0)
(-3.1104e-14 0 0)
(-1.46195e-14 0 0)
(2.42464e-15 0 0)
(-5.94278e-14 0 0)
(-7.57632e-15 0 0)
(-4.23926e-14 0 0)
(-9.22817e-15 0 0)
(-1.57474e-14 0 0)
(2.69294e-14 0 0)
(-2.40872e-14 0 0)
(1.48236e-14 0 0)
(-1.62268e-14 0 0)
(4.38936e-14 0 0)
(1.52856e-14 0 0)
(6.51033e-14 0 0)
(1.57227e-15 0 0)
(7.6392e-14 0 0)
(-3.09945e-15 0 0)
(5.25888e-14 0 0)
(8.25127e-15 0 0)
(-1.41487e-14 0 0)
(4.05875e-15 0 0)
(-9.10112e-14 0 0)
(3.89018e-14 0 0)
(-6.46946e-14 0 0)
(1.54362e-14 0 0)
(-6.03604e-14 0 0)
(-2.28707e-14 0 0)
(-3.67617e-14 0 0)
(-5.13376e-15 0 0)
(-5.92768e-14 0 0)
(1.75679e-14 0 0)
(-3.28802e-14 0 0)
(2.51709e-14 0 0)
(5.47134e-15 0 0)
(7.05123e-14 0 0)
(4.44356e-14 0 0)
(5.9277e-14 0 0)
(5.31841e-14 0 0)
(1.25946e-14 0 0)
(5.71896e-14 0 0)
(2.8928e-14 0 0)
(2.80842e-14 0 0)
(3.96748e-14 0 0)
(3.05445e-14 0 0)
(-1.40065e-14 0 0)
(2.75335e-14 0 0)
(-1.01518e-14 0 0)
(2.5011e-14 0 0)
(-2.93364e-14 0 0)
(-5.25807e-15 0 0)
(-2.19381e-14 0 0)
(-3.80761e-14 0 0)
(-3.36532e-14 0 0)
(-1.15287e-14 0 0)
(-1.10898e-13 0 0)
(2.00991e-14 0 0)
(-6.97574e-14 0 0)
(-2.48069e-14 0 0)
(-5.40188e-14 0 0)
(4.06762e-15 0 0)
(-3.07753e-14 0 0)
(-3.7641e-14 0 0)
(-5.88869e-15 0 0)
(-3.67706e-14 0 0)
(-1.49659e-14 0 0)
(-5.15586e-14 0 0)
(-3.86382e-15 0 0)
(-2.76666e-14 0 0)
(-3.80139e-14 0 0)
(4.07659e-15 0 0)
(-1.08891e-14 0 0)
(-3.2605e-14 0 0)
(-3.58203e-14 0 0)
(-9.00878e-14 0 0)
(-4.88766e-14 0 0)
(-1.31903e-13 0 0)
(-3.1726e-14 0 0)
(-1.09574e-13 0 0)
(-5.85398e-14 0 0)
(-6.19416e-14 0 0)
(-5.76605e-14 0 0)
(-3.44348e-14 0 0)
(-5.73496e-14 0 0)
(-1.81012e-14 0 0)
(-4.54836e-14 0 0)
(-3.29425e-14 0 0)
(-5.4845e-14 0 0)
(-5.00843e-14 0 0)
(-1.406e-14 0 0)
(-1.28076e-14 0 0)
(-3.49763e-14 0 0)
(-3.61504e-15 0 0)
(-1.86784e-14 0 0)
(-5.39567e-14 0 0)
(-7.46974e-15 0 0)
(-9.5097e-14 0 0)
(8.25084e-15 0 0)
(-8.73787e-14 0 0)
(-2.02507e-14 0 0)
(-8.19076e-14 0 0)
(-4.55993e-14 0 0)
(-1.01305e-13 0 0)
(-6.16219e-14 0 0)
(-9.66603e-14 0 0)
(-2.59172e-14 0 0)
(-6.38688e-14 0 0)
(-5.0724e-14 0 0)
(-6.49434e-14 0 0)
(-2.77291e-14 0 0)
(-3.10419e-14 0 0)
(-6.19059e-14 0 0)
(-4.24107e-14 0 0)
(-6.93132e-14 0 0)
(-1.60763e-14 0 0)
(-8.17744e-14 0 0)
(-2.52599e-14 0 0)
(-3.8467e-14 0 0)
(-1.81456e-14 0 0)
(-5.98453e-14 0 0)
(1.75058e-14 0 0)
(-1.66977e-14 0 0)
(-2.01083e-14 0 0)
(-3.46834e-14 0 0)
(-4.08917e-14 0 0)
(-6.6409e-14 0 0)
(-1.60139e-14 0 0)
(-2.33858e-14 0 0)
(-3.6886e-14 0 0)
(-1.8483e-14 0 0)
(-2.1938e-14 0 0)
(-4.84056e-15 0 0)
(1.45039e-14 0 0)
(5.87976e-15 0 0)
(-1.6751e-14 0 0)
(3.06426e-15 0 0)
(1.63422e-15 0 0)
(2.52242e-14 0 0)
(7.0521e-15 0 0)
(-7.7271e-15 0 0)
(1.54632e-14 0 0)
(-1.83053e-14 0 0)
(2.71248e-14 0 0)
(-3.8298e-14 0 0)
(3.59532e-14 0 0)
(-4.7313e-14 0 0)
(4.16376e-14 0 0)
(-2.07121e-14 0 0)
(2.26751e-14 0 0)
(4.20998e-15 0 0)
(1.67599e-14 0 0)
(8.0825e-15 0 0)
(3.75965e-14 0 0)
(4.18511e-14 0 0)
(7.42694e-14 0 0)
(9.28324e-14 0 0)
(5.89396e-14 0 0)
(9.47952e-14 0 0)
(4.45778e-14 0 0)
(9.55857e-14 0 0)
(5.61685e-14 0 0)
(1.13571e-13 0 0)
(7.27063e-14 0 0)
(9.5186e-14 0 0)
(6.22704e-14 0 0)
(1.22524e-13 0 0)
(4.75888e-14 0 0)
(9.41822e-14 0 0)
(5.45965e-14 0 0)
(6.05736e-14 0 0)
(5.93927e-14 0 0)
(8.86045e-14 0 0)
(6.9509e-14 0 0)
(7.72092e-14 0 0)
(6.57785e-14 0 0)
(3.14239e-14 0 0)
(6.49968e-14 0 0)
(2.81287e-14 0 0)
(3.90709e-14 0 0)
(7.07897e-15 0 0)
(4.41512e-14 0 0)
(2.20447e-14 0 0)
(-2.21154e-15 0 0)
(3.5154e-14 0 0)
(-2.50463e-15 0 0)
(1.1724e-14 0 0)
(-8.69526e-15 0 0)
(2.53574e-14 0 0)
(8.34895e-15 0 0)
(2.72049e-14 0 0)
(2.78889e-14 0 0)
(6.0698e-14 0 0)
(5.35661e-14 0 0)
(4.24549e-14 0 0)
(4.91963e-14 0 0)
(5.98275e-14 0 0)
(5.27223e-14 0 0)
(3.23565e-14 0 0)
(8.45278e-14 0 0)
(5.30777e-14 0 0)
(7.5797e-14 0 0)
(5.13367e-14 0 0)
(6.21745e-15 0 0)
(1.01936e-13 0 0)
(4.99335e-14 0 0)
(8.99103e-14 0 0)
(6.62671e-14 0 0)
(1.17781e-13 0 0)
(5.97212e-14 0 0)
(6.378e-14 0 0)
(2.81021e-14 0 0)
(7.13828e-14 0 0)
(4.74288e-14 0 0)
(6.4082e-14 0 0)
(6.87094e-14 0 0)
(1.41399e-14 0 0)
(5.92059e-14 0 0)
(1.25322e-14 0 0)
(4.10516e-14 0 0)
(1.09425e-14 0 0)
(4.08028e-14 0 0)
(-2.57482e-14 0 0)
(2.351e-14 0 0)
(-4.01721e-14 0 0)
(1.8092e-14 0 0)
(-5.57153e-14 0 0)
(-3.53514e-15 0 0)
(-6.91356e-14 0 0)
(1.31182e-14 0 0)
(-5.86285e-14 0 0)
(-2.89559e-15 0 0)
(-5.33706e-14 0 0)
(-1.62892e-14 0 0)
(-1.9975e-14 0 0)
(2.51442e-14 0 0)
(1.17328e-14 0 0)
(-1.2612e-14 0 0)
(3.52072e-14 0 0)
(9.54794e-15 0 0)
(6.99891e-15 0 0)
(7.44289e-15 0 0)
(1.43174e-14 0 0)
(-2.85814e-14 0 0)
(3.96999e-15 0 0)
(-4.62917e-14 0 0)
(-2.96119e-14 0 0)
(-4.82369e-14 0 0)
(-1.07737e-14 0 0)
(-3.08731e-14 0 0)
(-4.26502e-14 0 0)
(-2.08634e-14 0 0)
(-3.46833e-14 0 0)
(-6.75925e-15 0 0)
(-7.04588e-14 0 0)
(4.15218e-14 0 0)
(-3.88664e-14 0 0)
(-2.28173e-14 0 0)
(-3.24006e-14 0 0)
(-5.81772e-15 0 0)
(-1.84652e-14 0 0)
(1.17505e-14 0 0)
(-2.86437e-14 0 0)
(1.89802e-14 0 0)
(-2.80486e-14 0 0)
(-9.09498e-15 0 0)
(-4.11403e-14 0 0)
(-1.28876e-14 0 0)
(-1.36513e-14 0 0)
(-1.52944e-14 0 0)
(-7.5142e-15 0 0)
(-6.45525e-14 0 0)
(-2.20538e-14 0 0)
(-1.20294e-13 0 0)
(1.24784e-14 0 0)
(-7.48643e-14 0 0)
(-2.60327e-14 0 0)
(-7.37363e-14 0 0)
(-1.45308e-14 0 0)
(-6.28207e-14 0 0)
(2.73538e-15 0 0)
(-3.95328e-14 0 0)
(-1.17417e-14 0 0)
(-3.83425e-14 0 0)
(2.14671e-14 0 0)
(4.26313e-16 0 0)
(3.83704e-15 0 0)
(7.44294e-15 0 0)
(2.19379e-14 0 0)
(9.75227e-15 0 0)
(2.43538e-14 0 0)
(2.9896e-14 0 0)
(-1.07733e-14 0 0)
(6.93574e-14 0 0)
(-5.83084e-14 0 0)
(9.81521e-14 0 0)
(-3.44166e-14 0 0)
(5.94278e-14 0 0)
(-1.90511e-14 0 0)
(7.10717e-14 0 0)
(-5.59414e-16 0 0)
(4.6505e-14 0 0)
(-1.84474e-14 0 0)
(6.03072e-14 0 0)
(-5.61323e-15 0 0)
(4.86723e-15 0 0)
(-1.18482e-14 0 0)
(3.447e-14 0 0)
(1.27021e-15 0 0)
(9.40578e-15 0 0)
(1.3083e-14 0 0)
(4.08738e-14 0 0)
(4.22773e-14 0 0)
(7.73612e-15 0 0)
(4.87254e-14 0 0)
(2.69118e-14 0 0)
(4.60875e-14 0 0)
(1.42287e-14 0 0)
(4.01456e-14 0 0)
(1.51258e-14 0 0)
(6.70841e-14 0 0)
(4.89653e-14 0 0)
(1.13305e-13 0 0)
(4.48799e-14 0 0)
(1.88276e-13 0 0)
(1.94272e-13 0 0)
(5.36468e-13 0 0)
(8.16956e-13 0 0)
(1.53689e-12 0 0)
(2.54166e-12 0 0)
(4.44874e-12 0 0)
(7.56336e-12 0 0)
(1.28045e-11 0 0)
(2.14778e-11 0 0)
(3.58585e-11 0 0)
(5.96612e-11 0 0)
(9.85865e-11 0 0)
(1.62161e-10 0 0)
(2.65467e-10 0 0)
(4.32446e-10 0 0)
(7.00921e-10 0 0)
(1.13051e-09 0 0)
(1.81432e-09 0 0)
(2.89711e-09 0 0)
(4.60267e-09 0 0)
(7.2752e-09 0 0)
(1.14404e-08 0 0)
(1.78973e-08 0 0)
(2.78525e-08 0 0)
(4.31177e-08 0 0)
(6.63963e-08 0 0)
(1.01698e-07 0 0)
(1.54932e-07 0 0)
(2.34756e-07 0 0)
(3.53768e-07 0 0)
(5.30186e-07 0 0)
(7.90187e-07 0 0)
(1.17113e-06 0 0)
(1.72598e-06 0 0)
(2.52931e-06 0 0)
(3.68544e-06 0 0)
(5.33922e-06 0 0)
(7.69042e-06 0 0)
(1.10126e-05 0 0)
(1.56775e-05 0 0)
(2.21867e-05 0 0)
(3.12123e-05 0 0)
(4.3647e-05 0 0)
(6.06686e-05 0 0)
(8.38182e-05 0 0)
(0.000115096 0 0)
(0.00015708 0 0)
(0.000213058 0 0)
(0.000287199 0 0)
(0.000384736 0 0)
(0.000512186 0 0)
(0.00067759 0 0)
(0.000890787 0 0)
(0.0011637 0 0)
(0.00151066 0 0)
(0.00194871 0 0)
(0.00249796 0 0)
(0.00318187 0 0)
(0.00402761 0 0)
(0.00506629 0 0)
(0.00633321 0 0)
(0.007868 0 0)
(0.0097148 0 0)
(0.0119222 0 0)
(0.0145432 0 0)
(0.0176351 0 0)
(0.0212592 0 0)
(0.0254803 0 0)
(0.0303666 0 0)
(0.0359888 0 0)
(0.0424198 0 0)
(0.049734 0 0)
(0.0580064 0 0)
(0.0673124 0 0)
(0.0777265 0 0)
(0.0893223 0 0)
(0.102171 0 0)
(0.116343 0 0)
(0.131904 0 0)
(0.148918 0 0)
(0.167443 0 0)
(0.187537 0 0)
(0.209251 0 0)
(0.232632 0 0)
(0.257725 0 0)
(0.284569 0 0)
(0.313201 0 0)
(0.343651 0 0)
(0.37595 0 0)
(0.410122 0 0)
(0.44619 0 0)
(0.484172 0 0)
(0.524087 0 0)
(0.565949 0 0)
(0.60977 0 0)
(0.655562 0 0)
(0.703335 0 0)
(0.753098 0 0)
(0.804856 0 0)
(0.858619 0 0)
(0.91439 0 0)
(0.972177 0 0)
(1.03198 0 0)
(1.09381 0 0)
(1.15767 0 0)
(1.22357 0 0)
(1.2915 0 0)
(1.36147 0 0)
(1.43349 0 0)
(1.50757 0 0)
(1.58369 0 0)
(1.66188 0 0)
(1.74213 0 0)
(1.82445 0 0)
(1.90884 0 0)
(1.99531 0 0)
(2.08387 0 0)
(2.17451 0 0)
(2.26725 0 0)
(2.3621 0 0)
(2.45904 0 0)
(2.5581 0 0)
(2.65928 0 0)
(2.76259 0 0)
(2.86802 0 0)
(2.9756 0 0)
(3.08531 0 0)
(3.19719 0 0)
(3.31122 0 0)
(3.42741 0 0)
(3.54579 0 0)
(3.66634 0 0)
(3.78909 0 0)
(3.91403 0 0)
(4.04118 0 0)
(4.17055 0 0)
(4.30213 0 0)
(4.43596 0 0)
(4.57202 0 0)
(4.71033 0 0)
(4.85091 0 0)
(4.99375 0 0)
(5.13887 0 0)
(5.28628 0 0)
(5.43599 0 0)
(5.58801 0 0)
(5.74234 0 0)
(5.899 0 0)
(6.058 0 0)
(6.21935 0 0)
(6.38306 0 0)
(6.54914 0 0)
(6.7176 0 0)
(6.88845 0 0)
(7.06171 0 0)
(7.23738 0 0)
(7.41547 0 0)
(7.596 0 0)
(7.77898 0 0)
(7.96442 0 0)
(8.15233 0 0)
(8.34273 0 0)
(8.53562 0 0)
(8.73102 0 0)
(8.92894 0 0)
(9.12939 0 0)
(9.3324 0 0)
(9.53796 0 0)
(9.7461 0 0)
(9.95683 0 0)
(10.1702 0 0)
(10.3861 0 0)
(10.6047 0 0)
(10.8259 0 0)
(11.0498 0 0)
(11.2764 0 0)
(11.5056 0 0)
(11.7376 0 0)
(11.9723 0 0)
(12.2097 0 0)
(12.4499 0 0)
(12.6929 0 0)
(12.9387 0 0)
(13.1873 0 0)
(13.4387 0 0)
(13.693 0 0)
(13.9501 0 0)
(14.2102 0 0)
(14.473 0 0)
(14.7391 0 0)
(15.0077 0 0)
(15.2798 0 0)
(15.5542 0 0)
(15.8325 0 0)
(16.1128 0 0)
(16.3973 0 0)
(16.6836 0 0)
(16.9745 0 0)
(17.2669 0 0)
(17.5643 0 0)
(17.8628 0 0)
(18.1667 0 0)
(18.4716 0 0)
(18.7822 0 0)
(19.0934 0 0)
(19.4107 0 0)
(19.7285 0 0)
(20.0527 0 0)
(20.377 0 0)
(20.7081 0 0)
(21.0389 0 0)
(21.3766 0 0)
(21.7133 0 0)
(22.0563 0 0)
(22.4002 0 0)
(22.7454 0 0)
(23.0927 0 0)
(23.4429 0 0)
(23.7965 0 0)
(24.1539 0 0)
(24.5149 0 0)
(24.8794 0 0)
(25.2474 0 0)
(25.6186 0 0)
(25.9932 0 0)
(26.371 0 0)
(26.7524 0 0)
(27.137 0 0)
(27.5255 0 0)
(27.9167 0 0)
(28.3125 0 0)
(28.7102 0 0)
(29.1137 0 0)
(29.5174 0 0)
(29.9292 0 0)
(30.3383 0 0)
(30.7593 0 0)
(31.173 0 0)
(31.604 0 0)
(32.0216 0 0)
(32.4633 0 0)
(32.8846 0 0)
(33.337 0 0)
(33.7622 0 0)
(34.2254 0 0)
(34.6543 0 0)
(35.1285 0 0)
(35.5612 0 0)
(36.0465 0 0)
(36.4829 0 0)
(36.9794 0 0)
(37.4195 0 0)
(37.9273 0 0)
(38.3712 0 0)
(38.8904 0 0)
(39.338 0 0)
(39.8687 0 0)
(40.32 0 0)
(40.8624 0 0)
(41.3174 0 0)
(41.8715 0 0)
(42.3301 0 0)
(42.8962 0 0)
(43.3583 0 0)
(43.9363 0 0)
(44.4021 0 0)
(44.9922 0 0)
(45.4614 0 0)
(46.0637 0 0)
(46.5364 0 0)
(47.151 0 0)
(47.627 0 0)
(48.254 0 0)
(48.7332 0 0)
(49.3728 0 0)
(49.8552 0 0)
(50.5073 0 0)
(50.9927 0 0)
(51.6575 0 0)
(52.1459 0 0)
(52.8234 0 0)
(53.3145 0 0)
(54.0048 0 0)
(54.4987 0 0)
(55.2016 0 0)
(55.698 0 0)
(56.4135 0 0)
(56.9125 0 0)
(57.6405 0 0)
(58.1417 0 0)
(58.8821 0 0)
(59.3854 0 0)
(60.1382 0 0)
(60.6432 0 0)
(61.4083 0 0)
(61.9146 0 0)
(62.6919 0 0)
(63.199 0 0)
(63.9884 0 0)
(64.4957 0 0)
(65.297 0 0)
(65.8038 0 0)
(66.617 0 0)
(67.1223 0 0)
(67.947 0 0)
(68.4497 0 0)
(69.2854 0 0)
(69.7829 0 0)
(70.6295 0 0)
(71.1152 0 0)
(71.9712 0 0)
(72.4254 0 0)
(73.9557 0 0)
)
;

boundaryField
{
    sideLeft
    {
        type            symmetryPlane;
    }
    sideRight
    {
        type            calculated;
        value           uniform (73.9557 0 0);
    }
    topbottom
    {
        type            empty;
    }
    frontback
    {
        type            empty;
    }
}


// ************************************************************************* //
