/*--------------------------------*- C++ -*----------------------------------*\
| =========                 |                                                 |
| \\      /  F ield         | OpenFOAM: The Open Source CFD Toolbox           |
|  \\    /   O peration     | Version:  2.4.0                                 |
|   \\  /    A nd           | Web:      www.OpenFOAM.org                      |
|    \\/     M anipulation  |                                                 |
\*---------------------------------------------------------------------------*/
FoamFile
{
    version     2.0;
    format      ascii;
    class       volVectorField;
    location    "0.08";
    object      U.water;
}
// * * * * * * * * * * * * * * * * * * * * * * * * * * * * * * * * * * * * * //

dimensions      [0 1 -1 0 0 0 0];

internalField   nonuniform List<vector> 
1000
(
(-1.42099e-14 0 0)
(-2.13166e-14 0 0)
(-2.91322e-13 0 0)
(-1.91847e-13 0 0)
(-1.77635e-13 0 0)
(-3.76588e-13 0 0)
(-4.68958e-13 0 0)
(-5.82645e-13 0 0)
(-6.32383e-13 0 0)
(-6.03961e-13 0 0)
(-6.11067e-13 0 0)
(-5.8975e-13 0 0)
(-6.60805e-13 0 0)
(-6.89226e-13 0 0)
(-5.61329e-13 0 0)
(-5.96855e-13 0 0)
(-5.40013e-13 0 0)
(-6.25277e-13 0 0)
(-5.61329e-13 0 0)
(-7.10542e-13 0 0)
(-7.38965e-13 0 0)
(-8.24229e-13 0 0)
(-6.75016e-13 0 0)
(-4.47642e-13 0 0)
(-6.03961e-13 0 0)
(-8.88179e-13 0 0)
(-1.00187e-12 0 0)
(-1.14397e-12 0 0)
(-1.12266e-12 0 0)
(-8.88179e-13 0 0)
(-9.23705e-13 0 0)
(-9.80549e-13 0 0)
(-9.37917e-13 0 0)
(-9.23705e-13 0 0)
(-6.03962e-13 0 0)
(-6.53698e-13 0 0)
(-6.75017e-13 0 0)
(-6.25277e-13 0 0)
(-4.61853e-13 0 0)
(-4.83169e-13 0 0)
(-5.54224e-13 0 0)
(-5.32907e-13 0 0)
(-6.3949e-14 0 0)
(-8.52648e-14 0 0)
(-7.81599e-14 0 0)
(-2.13163e-14 0 0)
(4.26326e-14 0 0)
(9.23706e-14 0 0)
(1.06581e-13 0 0)
(2.55795e-13 0 0)
(4.83169e-13 0 0)
(2.77111e-13 0 0)
(3.48166e-13 0 0)
(7.17648e-13 0 0)
(4.54748e-13 0 0)
(5.04485e-13 0 0)
(3.90798e-13 0 0)
(5.25802e-13 0 0)
(3.76588e-13 0 0)
(1.06581e-13 0 0)
(-8.52648e-14 0 0)
(-1.35003e-13 0 0)
(9.23707e-14 0 0)
(8.52651e-14 0 0)
(-2.13163e-13 0 0)
(-4.83169e-13 0 0)
(-5.89751e-13 0 0)
(-4.05009e-13 0 0)
(-2.91322e-13 0 0)
(-1.98952e-13 0 0)
(-7.10525e-15 0 0)
(1.42108e-13 0 0)
(1.98952e-13 0 0)
(2.84217e-13 0 0)
(5.68433e-14 0 0)
(-2.1316e-14 0 0)
(2.34479e-13 0 0)
(2.06058e-13 0 0)
(2.20268e-13 0 0)
(2.34479e-13 0 0)
(-2.13164e-14 0 0)
(-1.98952e-13 0 0)
(-3.55271e-14 0 0)
(7.81595e-14 0 0)
(-1.63424e-13 0 0)
(-3.33955e-13 0 0)
(-6.18172e-13 0 0)
(-4.54748e-13 0 0)
(-1.84741e-13 0 0)
(1.42111e-14 0 0)
(1.77635e-13 0 0)
(2.62901e-13 0 0)
(-1.42106e-14 0 0)
(-1.7053e-13 0 0)
(-2.55795e-13 0 0)
(1.42108e-13 0 0)
(2.98429e-13 0 0)
(1.98951e-13 0 0)
(3.62377e-13 0 0)
(4.1922e-13 0 0)
(2.20268e-13 0 0)
(1.13687e-13 0 0)
(-8.52651e-14 0 0)
(-7.81598e-14 0 0)
(-2.20268e-13 0 0)
(-5.82645e-13 0 0)
(-7.60281e-13 0 0)
(-9.166e-13 0 0)
(-8.73967e-13 0 0)
(-6.39489e-13 0 0)
(-5.96856e-13 0 0)
(-2.13163e-13 0 0)
(-1.7053e-13 0 0)
(-3.19744e-13 0 0)
(-5.25801e-13 0 0)
(-5.25802e-13 0 0)
(-6.75016e-13 0 0)
(-7.03437e-13 0 0)
(-5.40013e-13 0 0)
(-6.39488e-13 0 0)
(-7.4607e-13 0 0)
(-8.95284e-13 0 0)
(-6.89227e-13 0 0)
(-8.24229e-13 0 0)
(-7.53176e-13 0 0)
(-7.74491e-13 0 0)
(-7.4607e-13 0 0)
(-8.02913e-13 0 0)
(-7.17649e-13 0 0)
(-5.8975e-13 0 0)
(-4.26326e-13 0 0)
(-5.47117e-13 0 0)
(-6.39491e-14 0 0)
(2.55796e-13 0 0)
(1.63425e-13 0 0)
(-6.39485e-14 0 0)
(-8.52652e-14 0 0)
(-3.55271e-14 0 0)
(4.26323e-14 0 0)
(2.84217e-13 0 0)
(3.2685e-13 0 0)
(8.52648e-14 0 0)
(1.70531e-13 0 0)
(9.94756e-14 0 0)
(-6.39485e-14 0 0)
(5.68432e-14 0 0)
(-1.7053e-13 0 0)
(-9.9476e-14 0 0)
(2.13163e-13 0 0)
(3.05533e-13 0 0)
(-2.84217e-14 0 0)
(-4.26324e-14 0 0)
(-3.19744e-13 0 0)
(-3.33955e-13 0 0)
(-1.91847e-13 0 0)
(-5.32907e-13 0 0)
(-5.68434e-13 0 0)
(-5.54223e-13 0 0)
(-6.25278e-13 0 0)
(-3.90799e-13 0 0)
(-3.19744e-13 0 0)
(-3.69483e-13 0 0)
(-4.54747e-13 0 0)
(-2.41585e-13 0 0)
(6.39492e-14 0 0)
(2.55795e-13 0 0)
(-2.84213e-14 0 0)
(-6.39493e-14 0 0)
(-3.90798e-13 0 0)
(-3.48166e-13 0 0)
(7.71951e-21 0 0)
(2.4869e-13 0 0)
(2.13163e-13 0 0)
(2.41584e-13 0 0)
(1.77636e-13 0 0)
(-2.84222e-14 0 0)
(-3.90798e-13 0 0)
(-3.05534e-13 0 0)
(-2.98428e-13 0 0)
(-2.34479e-13 0 0)
(-9.23706e-14 0 0)
(4.9738e-14 0 0)
(2.27373e-13 0 0)
(-4.2632e-14 0 0)
(-1.20793e-13 0 0)
(7.10585e-15 0 0)
(2.70006e-13 0 0)
(3.33956e-13 0 0)
(7.24753e-13 0 0)
(6.18173e-13 0 0)
(6.11066e-13 0 0)
(2.84222e-14 0 0)
(1.63425e-13 0 0)
(3.83693e-13 0 0)
(4.33431e-13 0 0)
(3.12639e-13 0 0)
(1.49214e-13 0 0)
(1.91846e-13 0 0)
(1.91846e-13 0 0)
(2.55796e-13 0 0)
(2.91322e-13 0 0)
(1.35004e-13 0 0)
(1.49213e-13 0 0)
(-3.76587e-13 0 0)
(-6.75016e-13 0 0)
(-8.66862e-13 0 0)
(-9.66338e-13 0 0)
(-9.73444e-13 0 0)
(-5.04485e-13 0 0)
(-7.10544e-14 0 0)
(-2.41585e-13 0 0)
(-4.97382e-14 0 0)
(-7.1052e-15 0 0)
(-5.68437e-14 0 0)
(-2.34479e-13 0 0)
(-2.4869e-13 0 0)
(-2.77112e-13 0 0)
(-4.05009e-13 0 0)
(-3.2685e-13 0 0)
(-1.77636e-13 0 0)
(-4.1922e-13 0 0)
(-5.04485e-13 0 0)
(-5.25802e-13 0 0)
(-5.18696e-13 0 0)
(-2.20268e-13 0 0)
(-2.70006e-13 0 0)
(-3.55273e-14 0 0)
(1.27898e-13 0 0)
(2.84213e-14 0 0)
(-2.06057e-13 0 0)
(-3.83693e-13 0 0)
(-5.68434e-13 0 0)
(-5.32907e-13 0 0)
(-5.32907e-13 0 0)
(-8.81073e-13 0 0)
(-8.88179e-13 0 0)
(-8.31335e-13 0 0)
(-3.90799e-13 0 0)
(-6.11067e-13 0 0)
(-5.8975e-13 0 0)
(-4.1922e-13 0 0)
(-4.61853e-13 0 0)
(-7.67385e-13 0 0)
(-7.74492e-13 0 0)
(-8.59756e-13 0 0)
(-8.81073e-13 0 0)
(-6.18172e-13 0 0)
(-3.41061e-13 0 0)
(-3.55271e-13 0 0)
(-1.63425e-13 0 0)
(1.42108e-14 0 0)
(1.63425e-13 0 0)
(3.76588e-13 0 0)
(1.91847e-13 0 0)
(3.69482e-13 0 0)
(4.19221e-13 0 0)
(6.89226e-13 0 0)
(7.38965e-13 0 0)
(7.10542e-13 0 0)
(8.17125e-13 0 0)
(9.23705e-13 0 0)
(9.09495e-13 0 0)
(7.53175e-13 0 0)
(7.17648e-13 0 0)
(4.76064e-13 0 0)
(5.1159e-13 0 0)
(4.76064e-13 0 0)
(5.40012e-13 0 0)
(4.47642e-13 0 0)
(4.54747e-13 0 0)
(5.61329e-13 0 0)
(7.03437e-13 0 0)
(5.68434e-13 0 0)
(4.47642e-13 0 0)
(2.20268e-13 0 0)
(3.62377e-13 0 0)
(4.9738e-13 0 0)
(5.82644e-13 0 0)
(6.32383e-13 0 0)
(6.82121e-13 0 0)
(5.32907e-13 0 0)
(5.11591e-13 0 0)
(4.12115e-13 0 0)
(8.52659e-14 0 0)
(-3.55277e-14 0 0)
(-1.42106e-14 0 0)
(-1.06582e-13 0 0)
(-6.39487e-14 0 0)
(-7.10544e-14 0 0)
(1.63425e-13 0 0)
(2.70006e-13 0 0)
(4.05009e-13 0 0)
(6.82121e-13 0 0)
(4.26326e-13 0 0)
(4.90274e-13 0 0)
(4.0501e-13 0 0)
(5.25802e-13 0 0)
(4.40536e-13 0 0)
(4.12115e-13 0 0)
(2.13163e-13 0 0)
(1.42108e-13 0 0)
(4.97381e-14 0 0)
(-1.49214e-13 0 0)
(-2.91323e-13 0 0)
(-3.05533e-13 0 0)
(-2.20269e-13 0 0)
(-1.13687e-13 0 0)
(-2.34479e-13 0 0)
(-2.41585e-13 0 0)
(-1.56319e-13 0 0)
(-4.26326e-14 0 0)
(-1.49214e-13 0 0)
(-1.27898e-13 0 0)
(-3.19744e-13 0 0)
(-3.69482e-13 0 0)
(-4.05009e-13 0 0)
(-4.68958e-13 0 0)
(-4.26326e-13 0 0)
(-9.23704e-14 0 0)
(3.55269e-14 0 0)
(-1.27898e-13 0 0)
(2.13166e-14 0 0)
(9.23703e-14 0 0)
(2.13163e-13 0 0)
(4.61852e-13 0 0)
(2.27374e-13 0 0)
(1.98952e-13 0 0)
(2.06057e-13 0 0)
(1.56319e-13 0 0)
(2.55796e-13 0 0)
(4.26326e-13 0 0)
(4.05009e-13 0 0)
(3.90799e-13 0 0)
(4.40536e-13 0 0)
(2.77112e-13 0 0)
(1.63424e-13 0 0)
(8.52652e-14 0 0)
(9.94761e-14 0 0)
(-6.7976e-20 0 0)
(-2.13162e-14 0 0)
(-1.35003e-13 0 0)
(-1.63425e-13 0 0)
(-2.34479e-13 0 0)
(-1.91846e-13 0 0)
(-1.63425e-13 0 0)
(-1.63424e-13 0 0)
(-1.06582e-13 0 0)
(8.52657e-14 0 0)
(1.06581e-13 0 0)
(1.13687e-13 0 0)
(4.05009e-13 0 0)
(2.70006e-13 0 0)
(1.77636e-13 0 0)
(1.84741e-13 0 0)
(4.61853e-13 0 0)
(3.76588e-13 0 0)
(2.27374e-13 0 0)
(7.81595e-14 0 0)
(-5.68433e-14 0 0)
(1.20792e-13 0 0)
(1.77636e-13 0 0)
(9.94759e-14 0 0)
(4.97382e-14 0 0)
(6.39489e-14 0 0)
(2.34479e-13 0 0)
(3.83693e-13 0 0)
(3.05534e-13 0 0)
(1.27897e-13 0 0)
(-1.42108e-13 0 0)
(-7.10551e-15 0 0)
(4.26327e-14 0 0)
(-1.27898e-13 0 0)
(-3.97904e-13 0 0)
(-1.35003e-13 0 0)
(7.10547e-14 0 0)
(3.55268e-14 0 0)
(3.55274e-14 0 0)
(-2.84218e-13 0 0)
(-3.62376e-13 0 0)
(6.39483e-14 0 0)
(-1.20792e-13 0 0)
(-2.27374e-13 0 0)
(3.90799e-13 0 0)
(7.10543e-13 0 0)
(4.76063e-13 0 0)
(1.77637e-13 0 0)
(3.33954e-13 0 0)
(5.11591e-13 0 0)
(3.05533e-13 0 0)
(2.70007e-13 0 0)
(3.55271e-13 0 0)
(4.54748e-13 0 0)
(6.32383e-13 0 0)
(2.98428e-13 0 0)
(1.63424e-13 0 0)
(-1.49214e-13 0 0)
(7.1054e-14 0 0)
(1.77636e-13 0 0)
(1.27897e-13 0 0)
(2.62901e-13 0 0)
(4.83169e-13 0 0)
(4.76064e-13 0 0)
(4.68959e-13 0 0)
(5.96856e-13 0 0)
(2.84217e-13 0 0)
(1.13687e-13 0 0)
(1.27898e-13 0 0)
(3.48166e-13 0 0)
(-1.42105e-14 0 0)
(-4.26328e-14 0 0)
(1.20793e-13 0 0)
(7.10539e-14 0 0)
(6.39491e-14 0 0)
(2.41584e-13 0 0)
(-7.10543e-14 0 0)
(7.81598e-14 0 0)
(3.41061e-13 0 0)
(5.68434e-13 0 0)
(2.20269e-13 0 0)
(4.97371e-14 0 0)
(-3.55266e-14 0 0)
(-2.1381e-19 0 0)
(1.98952e-13 0 0)
(2.629e-13 0 0)
(3.90799e-13 0 0)
(5.54224e-13 0 0)
(5.8975e-13 0 0)
(4.61853e-13 0 0)
(7.53175e-13 0 0)
(7.03438e-13 0 0)
(5.96856e-13 0 0)
(5.82645e-13 0 0)
(6.32383e-13 0 0)
(8.02913e-13 0 0)
(5.8975e-13 0 0)
(3.41061e-13 0 0)
(3.48166e-13 0 0)
(3.33956e-13 0 0)
(7.10542e-13 0 0)
(9.94761e-13 0 0)
(1.27898e-12 0 0)
(1.29319e-12 0 0)
(1.36424e-12 0 0)
(1.1795e-12 0 0)
(8.52651e-13 0 0)
(5.96856e-13 0 0)
(5.47118e-13 0 0)
(5.54223e-13 0 0)
(2.84217e-13 0 0)
(3.12639e-13 0 0)
(4.1922e-13 0 0)
(-7.81596e-14 0 0)
(-2.77112e-13 0 0)
(-4.12115e-13 0 0)
(-5.54223e-13 0 0)
(-4.83169e-13 0 0)
(-4.26326e-13 0 0)
(-3.26849e-13 0 0)
(-2.06058e-13 0 0)
(-3.97903e-13 0 0)
(-2.98429e-13 0 0)
(-2.91322e-13 0 0)
(-1.42113e-14 0 0)
(-7.10505e-15 0 0)
(1.49214e-13 0 0)
(3.69483e-13 0 0)
(5.96856e-13 0 0)
(3.48166e-13 0 0)
(2.34479e-13 0 0)
(1.84741e-13 0 0)
(1.77636e-13 0 0)
(3.69482e-13 0 0)
(3.90798e-13 0 0)
(4.83169e-13 0 0)
(3.76588e-13 0 0)
(4.26324e-14 0 0)
(7.10576e-15 0 0)
(-4.97385e-14 0 0)
(-1.06581e-13 0 0)
(1.49214e-13 0 0)
(-1.63425e-13 0 0)
(-2.27374e-13 0 0)
(-3.4106e-13 0 0)
(-1.63425e-13 0 0)
(-2.98428e-13 0 0)
(-5.40013e-13 0 0)
(-4.61853e-13 0 0)
(-3.69482e-13 0 0)
(-3.26849e-13 0 0)
(-2.49796e-19 0 0)
(8.52651e-14 0 0)
(2.84217e-13 0 0)
(3.83693e-13 0 0)
(2.27374e-13 0 0)
(2.13163e-13 0 0)
(3.4106e-13 0 0)
(3.55271e-13 0 0)
(4.54748e-13 0 0)
(7.4607e-13 0 0)
(7.03437e-13 0 0)
(5.32907e-13 0 0)
(2.70006e-13 0 0)
(1.27898e-13 0 0)
(2.91322e-13 0 0)
(5.47118e-13 0 0)
(6.53699e-13 0 0)
(6.82122e-13 0 0)
(7.24753e-13 0 0)
(6.39489e-13 0 0)
(6.89226e-13 0 0)
(4.90275e-13 0 0)
(4.12115e-13 0 0)
(2.91323e-13 0 0)
(1.91846e-13 0 0)
(9.94761e-14 0 0)
(1.49214e-13 0 0)
(1.4211e-14 0 0)
(2.84217e-14 0 0)
(-2.84219e-14 0 0)
(-1.56319e-13 0 0)
(-2.70007e-13 0 0)
(-7.24753e-13 0 0)
(-3.48166e-13 0 0)
(-2.77111e-13 0 0)
(-1.98952e-13 0 0)
(1.98952e-13 0 0)
(1.27897e-13 0 0)
(9.94764e-14 0 0)
(3.69482e-13 0 0)
(2.4869e-13 0 0)
(7.81593e-14 0 0)
(-2.13161e-14 0 0)
(-1.42109e-14 0 0)
(1.84741e-13 0 0)
(2.62901e-13 0 0)
(1.27898e-13 0 0)
(-1.84741e-13 0 0)
(-3.76588e-13 0 0)
(-4.47642e-13 0 0)
(-4.40537e-13 0 0)
(-3.90798e-13 0 0)
(-3.48166e-13 0 0)
(-2.4869e-13 0 0)
(-5.32907e-13 0 0)
(-6.96332e-13 0 0)
(-7.67386e-13 0 0)
(-5.40013e-13 0 0)
(-6.60805e-13 0 0)
(-4.12115e-13 0 0)
(-3.55271e-13 0 0)
(-5.68434e-13 0 0)
(-6.96332e-13 0 0)
(-6.82121e-13 0 0)
(-3.90798e-13 0 0)
(-6.39491e-14 0 0)
(-1.13687e-13 0 0)
(-3.83693e-13 0 0)
(-1.91846e-13 0 0)
(-1.77636e-13 0 0)
(-2.06057e-13 0 0)
(-2.20268e-13 0 0)
(-1.27898e-13 0 0)
(-2.84217e-13 0 0)
(-2.4869e-13 0 0)
(3.97904e-13 0 0)
(9.23711e-14 0 0)
(-7.10601e-15 0 0)
(1.27898e-13 0 0)
(1.35003e-13 0 0)
(2.91323e-13 0 0)
(4.83169e-13 0 0)
(4.68958e-13 0 0)
(3.83693e-13 0 0)
(3.12639e-13 0 0)
(4.05009e-13 0 0)
(4.1922e-13 0 0)
(6.25278e-13 0 0)
(5.82645e-13 0 0)
(1.91847e-13 0 0)
(3.83693e-13 0 0)
(2.77112e-13 0 0)
(1.7053e-13 0 0)
(1.13687e-13 0 0)
(7.10539e-14 0 0)
(1.5632e-13 0 0)
(3.62376e-13 0 0)
(5.82646e-13 0 0)
(1.03029e-12 0 0)
(9.80549e-13 0 0)
(8.17124e-13 0 0)
(5.11591e-13 0 0)
(4.61852e-13 0 0)
(5.68439e-14 0 0)
(-7.10586e-15 0 0)
(-4.40536e-13 0 0)
(-8.10019e-13 0 0)
(-1.03029e-12 0 0)
(-1.03029e-12 0 0)
(-1.20082e-12 0 0)
(-1.3145e-12 0 0)
(-1.15108e-12 0 0)
(-1.10845e-12 0 0)
(-7.17648e-13 0 0)
(-5.54223e-13 0 0)
(-4.33431e-13 0 0)
(-1.7053e-13 0 0)
(-8.52655e-14 0 0)
(-7.1054e-14 0 0)
(-1.27898e-13 0 0)
(9.23707e-14 0 0)
(-7.10545e-14 0 0)
(-1.27898e-13 0 0)
(-4.97378e-14 0 0)
(-3.2685e-13 0 0)
(-4.9738e-13 0 0)
(-5.11591e-13 0 0)
(-3.97903e-13 0 0)
(-2.55796e-13 0 0)
(3.55275e-14 0 0)
(-1.13687e-13 0 0)
(-2.34479e-13 0 0)
(-2.20268e-13 0 0)
(-6.39487e-14 0 0)
(-1.49214e-13 0 0)
(-3.83693e-13 0 0)
(-4.19221e-13 0 0)
(-6.46594e-13 0 0)
(-6.39489e-13 0 0)
(-7.88702e-13 0 0)
(-6.82121e-13 0 0)
(-8.38441e-13 0 0)
(-8.3844e-13 0 0)
(-7.53176e-13 0 0)
(-5.75539e-13 0 0)
(-3.33956e-13 0 0)
(-2.70005e-13 0 0)
(-2.27375e-13 0 0)
(-4.05009e-13 0 0)
(-6.75016e-13 0 0)
(-9.80549e-13 0 0)
(-9.16601e-13 0 0)
(-6.60804e-13 0 0)
(-4.54748e-13 0 0)
(-6.6791e-13 0 0)
(-8.10019e-13 0 0)
(-7.67386e-13 0 0)
(-5.61329e-13 0 0)
(-3.33955e-13 0 0)
(-2.98428e-13 0 0)
(-2.06057e-13 0 0)
(-1.42109e-13 0 0)
(-2.41584e-13 0 0)
(-1.42109e-13 0 0)
(-2.4869e-13 0 0)
(-2.13162e-13 0 0)
(-2.77113e-13 0 0)
(-4.05008e-13 0 0)
(-4.97381e-13 0 0)
(-1.06581e-12 0 0)
(-1.05871e-12 0 0)
(-9.166e-13 0 0)
(-8.45547e-13 0 0)
(-8.88178e-13 0 0)
(-7.4607e-13 0 0)
(-7.81596e-13 0 0)
(-5.47118e-13 0 0)
(-7.6028e-13 0 0)
(-8.17124e-13 0 0)
(-8.24229e-13 0 0)
(-7.31859e-13 0 0)
(-7.53175e-13 0 0)
(-5.32907e-13 0 0)
(-3.90798e-13 0 0)
(-4.40537e-13 0 0)
(-3.69482e-13 0 0)
(3.57086e-19 0 0)
(4.40536e-13 0 0)
(5.82645e-13 0 0)
(7.10543e-13 0 0)
(1.0445e-12 0 0)
(1.84031e-12 0 0)
(2.63611e-12 0 0)
(3.63087e-12 0 0)
(5.77671e-12 0 0)
(9.45732e-12 0 0)
(1.51701e-11 0 0)
(2.54943e-11 0 0)
(4.26397e-11 0 0)
(7.26956e-11 0 0)
(1.23215e-10 0 0)
(2.08985e-10 0 0)
(3.52934e-10 0 0)
(5.93772e-10 0 0)
(9.94859e-10 0 0)
(1.65941e-09 0 0)
(2.75503e-09 0 0)
(4.55255e-09 0 0)
(7.48622e-09 0 0)
(1.22497e-08 0 0)
(1.99448e-08 0 0)
(3.23119e-08 0 0)
(5.20843e-08 0 0)
(8.35283e-08 0 0)
(1.33269e-07 0 0)
(2.11531e-07 0 0)
(3.34003e-07 0 0)
(5.24612e-07 0 0)
(8.19633e-07 0 0)
(1.27372e-06 0 0)
(1.96871e-06 0 0)
(3.02639e-06 0 0)
(4.6268e-06 0 0)
(7.03443e-06 0 0)
(1.06353e-05 0 0)
(1.5989e-05 0 0)
(2.39015e-05 0 0)
(3.55251e-05 0 0)
(5.24967e-05 0 0)
(7.71249e-05 0 0)
(0.000112642 0 0)
(0.00016354 0 0)
(0.000236019 0 0)
(0.000338566 0 0)
(0.000482717 0 0)
(0.000684022 0 0)
(0.000963282 0 0)
(0.00134809 0 0)
(0.00187475 0 0)
(0.00259062 0 0)
(0.00355694 0 0)
(0.00485221 0 0)
(0.00657612 0 0)
(0.00885412 0 0)
(0.0118425 0 0)
(0.0157342 0 0)
(0.0207649 0 0)
(0.0272194 0 0)
(0.0354384 0 0)
(0.0458248 0 0)
(0.0588498 0 0)
(0.0750579 0 0)
(0.0950705 0 0)
(0.119588 0 0)
(0.14939 0 0)
(0.185331 0 0)
(0.228335 0 0)
(0.279387 0 0)
(0.33952 0 0)
(0.409798 0 0)
(0.491298 0 0)
(0.58509 0 0)
(0.692213 0 0)
(0.81365 0 0)
(0.950308 0 0)
(1.10299 0 0)
(1.27238 0 0)
(1.45903 0 0)
(1.66334 0 0)
(1.88552 0 0)
(2.12566 0 0)
(2.38365 0 0)
(2.65924 0 0)
(2.95201 0 0)
(3.26142 0 0)
(3.58679 0 0)
(3.92733 0 0)
(4.28219 0 0)
(4.65042 0 0)
(5.03104 0 0)
(5.42305 0 0)
(5.82544 0 0)
(6.23719 0 0)
(6.65733 0 0)
(7.08492 0 0)
(7.51905 0 0)
(7.9589 0 0)
(8.40368 0 0)
(8.85269 0 0)
(9.30528 0 0)
(9.76089 0 0)
(10.219 0 0)
(10.6792 0 0)
(11.1411 0 0)
(11.6043 0 0)
(12.0686 0 0)
(12.5338 0 0)
(12.9997 0 0)
(13.4661 0 0)
(13.9329 0 0)
(14.4 0 0)
(14.8674 0 0)
(15.335 0 0)
(15.8028 0 0)
(16.2707 0 0)
(16.7388 0 0)
(17.207 0 0)
(17.6754 0 0)
(18.1439 0 0)
(18.6126 0 0)
(19.0815 0 0)
(19.5506 0 0)
(20.02 0 0)
(20.4896 0 0)
(20.9595 0 0)
(21.4298 0 0)
(21.9004 0 0)
(22.3713 0 0)
(22.8427 0 0)
(23.3145 0 0)
(23.7868 0 0)
(24.2595 0 0)
(24.7328 0 0)
(25.2067 0 0)
(25.6811 0 0)
(26.1562 0 0)
(26.6318 0 0)
(27.1082 0 0)
(27.5852 0 0)
(28.063 0 0)
(28.5415 0 0)
(29.0207 0 0)
(29.5008 0 0)
(29.9816 0 0)
(30.4633 0 0)
(30.9459 0 0)
(31.4293 0 0)
(31.9136 0 0)
(32.3988 0 0)
(32.885 0 0)
(33.3721 0 0)
(33.8601 0 0)
(34.3491 0 0)
(34.8391 0 0)
(35.3301 0 0)
(35.8221 0 0)
(36.3151 0 0)
(36.8091 0 0)
(37.3041 0 0)
(37.8002 0 0)
(38.2973 0 0)
(38.7955 0 0)
(39.2947 0 0)
(39.7951 0 0)
(40.2965 0 0)
(40.799 0 0)
(41.3026 0 0)
(41.8073 0 0)
(42.3132 0 0)
(42.8203 0 0)
(43.3286 0 0)
(43.838 0 0)
(44.3487 0 0)
(44.8607 0 0)
(45.3739 0 0)
(45.8885 0 0)
(46.4044 0 0)
(46.9217 0 0)
(47.4404 0 0)
(47.9605 0 0)
(48.4821 0 0)
(49.0052 0 0)
(49.5298 0 0)
(50.056 0 0)
(50.5838 0 0)
(51.1132 0 0)
(51.6443 0 0)
(52.1772 0 0)
(52.7117 0 0)
(53.2482 0 0)
(53.7862 0 0)
(54.3267 0 0)
(54.8679 0 0)
(55.413 0 0)
(55.957 0 0)
(56.5075 0 0)
(57.0539 0 0)
(57.6104 0 0)
(58.1589 0 0)
(58.7218 0 0)
(59.273 0 0)
(59.8414 0 0)
(60.3969 0 0)
(60.9694 0 0)
(61.5306 0 0)
(62.1069 0 0)
(62.6736 0 0)
(63.255 0 0)
(63.8262 0 0)
(64.4135 0 0)
(64.9898 0 0)
(65.5822 0 0)
(66.165 0 0)
(66.762 0 0)
(67.3511 0 0)
(67.954 0 0)
(68.5485 0 0)
(69.1565 0 0)
(69.7564 0 0)
(70.3667 0 0)
(70.9681 0 0)
(71.5753 0 0)
(72.1756 0 0)
(72.7685 0 0)
(73.3557 0 0)
(73.9396 0 0)
(74.5241 0 0)
(75.1114 0 0)
(75.7025 0 0)
(76.2962 0 0)
(76.8941 0 0)
(77.4914 0 0)
(78.0931 0 0)
(78.6895 0 0)
(79.2968 0 0)
(79.8895 0 0)
(80.5072 0 0)
(81.0911 0 0)
(81.7285 0 0)
(82.294 0 0)
(82.9613 0 0)
(83.4938 0 0)
(84.2043 0 0)
(84.6925 0 0)
(85.4554 0 0)
(85.8963 0 0)
(86.7041 0 0)
(87.1153 0 0)
(87.9414 0 0)
(88.3527 0 0)
(89.1769 0 0)
(89.592 0 0)
(90.4204 0 0)
(90.834 0 0)
(91.664 0 0)
(92.0797 0 0)
(92.9118 0 0)
(93.3277 0 0)
(94.1616 0 0)
(94.5785 0 0)
(95.4137 0 0)
(95.8311 0 0)
(96.6675 0 0)
(97.0853 0 0)
(97.9225 0 0)
(98.3406 0 0)
(99.1785 0 0)
(99.5967 0 0)
(100.435 0 0)
(100.853 0 0)
(101.691 0 0)
(102.109 0 0)
(102.946 0 0)
(103.363 0 0)
(104.2 0 0)
(104.617 0 0)
(105.451 0 0)
(105.867 0 0)
(106.7 0 0)
(107.114 0 0)
(107.944 0 0)
(108.357 0 0)
(109.184 0 0)
(109.595 0 0)
(110.418 0 0)
(110.826 0 0)
(111.645 0 0)
(112.051 0 0)
(112.86 0 0)
(113.269 0 0)
(114.063 0 0)
(114.476 0 0)
(115.256 0 0)
(115.668 0 0)
(116.435 0 0)
(116.846 0 0)
(117.596 0 0)
(118.006 0 0)
(118.739 0 0)
(119.146 0 0)
(119.86 0 0)
(120.263 0 0)
(120.956 0 0)
(121.351 0 0)
(122.022 0 0)
(122.408 0 0)
(123.054 0 0)
(123.428 0 0)
(124.049 0 0)
(124.408 0 0)
(125.001 0 0)
(125.345 0 0)
(125.908 0 0)
(126.233 0 0)
(126.766 0 0)
(127.075 0 0)
(127.582 0 0)
(127.884 0 0)
(128.383 0 0)
(128.722 0 0)
(130.248 0 0)
)
;

boundaryField
{
    sideLeft
    {
        type            symmetryPlane;
    }
    sideRight
    {
        type            zeroGradient;
    }
    topbottom
    {
        type            empty;
    }
    frontback
    {
        type            empty;
    }
}


// ************************************************************************* //
