/*--------------------------------*- C++ -*----------------------------------*\
| =========                 |                                                 |
| \\      /  F ield         | OpenFOAM: The Open Source CFD Toolbox           |
|  \\    /   O peration     | Version:  2.4.0                                 |
|   \\  /    A nd           | Web:      www.OpenFOAM.org                      |
|    \\/     M anipulation  |                                                 |
\*---------------------------------------------------------------------------*/
FoamFile
{
    version     2.0;
    format      ascii;
    class       volVectorField;
    location    "0.08";
    object      Ur;
}
// * * * * * * * * * * * * * * * * * * * * * * * * * * * * * * * * * * * * * //

dimensions      [0 1 -1 0 0 0 0];

internalField   nonuniform List<vector> 
1000
(
(-2.84217e-14 0 0)
(-1.42109e-14 0 0)
(4.19407e-23 0 0)
(-3.55271e-14 0 0)
(-5.68434e-14 0 0)
(2.84217e-14 0 0)
(6.39488e-14 0 0)
(-4.26326e-14 0 0)
(-1.42109e-14 0 0)
(4.9738e-14 0 0)
(2.84217e-14 0 0)
(1.42109e-14 0 0)
(2.84217e-14 0 0)
(-4.9738e-14 0 0)
(-2.72424e-21 0 0)
(7.10543e-14 0 0)
(1.42109e-14 0 0)
(-4.9738e-14 0 0)
(-4.9738e-14 0 0)
(3.55271e-14 0 0)
(7.10543e-15 0 0)
(-3.55271e-14 0 0)
(-1.42109e-14 0 0)
(-5.68434e-14 0 0)
(2.84217e-14 0 0)
(5.68434e-14 0 0)
(-7.10543e-15 0 0)
(2.84217e-14 0 0)
(-7.10543e-15 0 0)
(-1.06637e-21 0 0)
(8.62687e-22 0 0)
(-8.52651e-14 0 0)
(-1.42109e-14 0 0)
(9.23706e-14 0 0)
(4.9738e-14 0 0)
(4.26326e-14 0 0)
(-2.13163e-14 0 0)
(-2.13163e-14 0 0)
(-6.03191e-23 0 0)
(-2.13163e-14 0 0)
(1.42109e-14 0 0)
(-3.55271e-14 0 0)
(-2.84217e-14 0 0)
(2.84217e-14 0 0)
(2.84217e-14 0 0)
(-1.42109e-14 0 0)
(1.42109e-14 0 0)
(4.26326e-14 0 0)
(8.09384e-22 0 0)
(2.84217e-14 0 0)
(-2.84217e-14 0 0)
(-4.26326e-14 0 0)
(1.42109e-14 0 0)
(7.10543e-15 0 0)
(-4.9738e-14 0 0)
(7.10543e-15 0 0)
(3.55271e-14 0 0)
(-3.55271e-14 0 0)
(2.13163e-14 0 0)
(1.53355e-21 0 0)
(-2.13163e-14 0 0)
(2.84217e-14 0 0)
(-5.68434e-14 0 0)
(-3.55271e-14 0 0)
(5.68434e-14 0 0)
(3.55271e-14 0 0)
(1.42109e-14 0 0)
(-2.00642e-21 0 0)
(7.10543e-15 0 0)
(2.13163e-14 0 0)
(-7.10543e-15 0 0)
(3.45041e-22 0 0)
(-4.87736e-22 0 0)
(-7.10543e-15 0 0)
(4.26326e-14 0 0)
(-2.84217e-14 0 0)
(-1.42109e-14 0 0)
(1.42109e-14 0 0)
(1.00321e-21 0 0)
(-1.42109e-14 0 0)
(-3.55271e-14 0 0)
(1.21408e-21 0 0)
(7.10543e-15 0 0)
(2.84217e-14 0 0)
(-7.10543e-15 0 0)
(-1.42109e-14 0 0)
(1.42109e-14 0 0)
(3.55271e-14 0 0)
(7.10543e-15 0 0)
(-4.9738e-14 0 0)
(-2.84217e-14 0 0)
(-1.42109e-14 0 0)
(-7.10543e-15 0 0)
(1.42109e-14 0 0)
(2.13163e-14 0 0)
(2.13163e-14 0 0)
(7.10543e-15 0 0)
(-7.10543e-15 0 0)
(-3.55271e-14 0 0)
(2.84217e-14 0 0)
(7.10543e-14 0 0)
(-1.42109e-14 0 0)
(-3.55271e-14 0 0)
(1.12602e-21 0 0)
(-7.10543e-15 0 0)
(-2.13163e-14 0 0)
(2.13163e-14 0 0)
(1.42109e-14 0 0)
(-3.55271e-14 0 0)
(-7.10543e-14 0 0)
(4.26326e-14 0 0)
(7.81597e-14 0 0)
(-3.55271e-14 0 0)
(1.42109e-14 0 0)
(1.42109e-14 0 0)
(2.3563e-21 0 0)
(7.10543e-14 0 0)
(4.26326e-14 0 0)
(-5.68434e-14 0 0)
(-6.39488e-14 0 0)
(-1.42109e-14 0 0)
(-1.42109e-14 0 0)
(-2.84217e-14 0 0)
(1.33121e-21 0 0)
(3.55271e-14 0 0)
(4.26326e-14 0 0)
(1.68927e-22 0 0)
(2.13163e-14 0 0)
(-7.10543e-15 0 0)
(-2.13163e-14 0 0)
(-1.42109e-14 0 0)
(1.42109e-14 0 0)
(6.39488e-14 0 0)
(-2.84217e-14 0 0)
(-7.81597e-14 0 0)
(-2.13163e-14 0 0)
(3.55271e-14 0 0)
(2.13163e-14 0 0)
(-3.96171e-22 0 0)
(-3.55271e-14 0 0)
(-1.42109e-14 0 0)
(2.13163e-14 0 0)
(2.84217e-14 0 0)
(1.42109e-14 0 0)
(7.10543e-15 0 0)
(1.42109e-14 0 0)
(-4.26326e-14 0 0)
(-7.10543e-15 0 0)
(2.13163e-14 0 0)
(-7.10543e-15 0 0)
(-2.13163e-14 0 0)
(-7.10543e-15 0 0)
(7.10543e-15 0 0)
(-2.84217e-14 0 0)
(7.10543e-14 0 0)
(4.9738e-14 0 0)
(-4.9738e-14 0 0)
(7.10543e-15 0 0)
(6.39488e-14 0 0)
(-4.26326e-14 0 0)
(-9.23706e-14 0 0)
(-1.42109e-14 0 0)
(3.55271e-14 0 0)
(7.10543e-15 0 0)
(7.10543e-15 0 0)
(6.39488e-14 0 0)
(7.10543e-15 0 0)
(-4.9738e-14 0 0)
(-7.10543e-15 0 0)
(-5.68434e-14 0 0)
(1.42109e-14 0 0)
(7.81597e-14 0 0)
(-2.13163e-14 0 0)
(7.10543e-15 0 0)
(1.42109e-14 0 0)
(-3.55271e-14 0 0)
(-5.68434e-14 0 0)
(2.13163e-14 0 0)
(2.84217e-14 0 0)
(1.42109e-14 0 0)
(3.55271e-14 0 0)
(7.10543e-15 0 0)
(3.71273e-22 0 0)
(-2.13163e-14 0 0)
(1.42109e-14 0 0)
(2.13163e-14 0 0)
(2.84217e-14 0 0)
(-1.42109e-14 0 0)
(-3.55271e-14 0 0)
(1.42109e-14 0 0)
(-7.10543e-14 0 0)
(-1.42109e-14 0 0)
(5.68434e-14 0 0)
(5.68434e-14 0 0)
(-4.9738e-14 0 0)
(-3.55271e-14 0 0)
(5.68434e-14 0 0)
(-4.9738e-14 0 0)
(-3.55271e-14 0 0)
(4.26326e-14 0 0)
(2.13163e-14 0 0)
(-1.42109e-14 0 0)
(-7.10543e-15 0 0)
(-2.13163e-14 0 0)
(-2.84217e-14 0 0)
(7.10543e-15 0 0)
(-4.26326e-14 0 0)
(-8.52651e-14 0 0)
(2.13163e-14 0 0)
(2.84217e-14 0 0)
(4.26326e-14 0 0)
(4.9738e-14 0 0)
(-2.84217e-14 0 0)
(-7.10543e-15 0 0)
(-2.13163e-14 0 0)
(7.10543e-15 0 0)
(-2.84217e-14 0 0)
(-4.26326e-14 0 0)
(4.26326e-14 0 0)
(7.81597e-14 0 0)
(-2.13163e-14 0 0)
(-4.9738e-14 0 0)
(7.10543e-15 0 0)
(1.42109e-14 0 0)
(2.84217e-14 0 0)
(-2.13163e-14 0 0)
(-6.39488e-14 0 0)
(-2.84217e-14 0 0)
(7.10543e-14 0 0)
(3.55271e-14 0 0)
(1.42109e-14 0 0)
(-3.55271e-14 0 0)
(-6.39488e-14 0 0)
(7.10543e-15 0 0)
(1.42109e-14 0 0)
(6.39488e-14 0 0)
(2.13163e-14 0 0)
(-4.9738e-14 0 0)
(3.55271e-14 0 0)
(-1.32619e-21 0 0)
(-2.84217e-14 0 0)
(2.13163e-14 0 0)
(1.42109e-14 0 0)
(4.26326e-14 0 0)
(-2.84217e-14 0 0)
(-6.39488e-14 0 0)
(-4.9738e-14 0 0)
(-4.26326e-14 0 0)
(7.10543e-15 0 0)
(1.42109e-14 0 0)
(4.9738e-14 0 0)
(-1.42109e-14 0 0)
(-6.39488e-14 0 0)
(1.42109e-14 0 0)
(5.68434e-14 0 0)
(3.55271e-14 0 0)
(7.10543e-15 0 0)
(-2.13163e-14 0 0)
(-2.84217e-14 0 0)
(-7.10543e-15 0 0)
(-2.84217e-14 0 0)
(7.55414e-22 0 0)
(2.84217e-14 0 0)
(7.10543e-15 0 0)
(3.55271e-14 0 0)
(4.9738e-14 0 0)
(-1.42109e-14 0 0)
(-6.39488e-14 0 0)
(-4.96924e-22 0 0)
(4.26326e-14 0 0)
(-1.42109e-14 0 0)
(-4.9738e-14 0 0)
(-2.84217e-14 0 0)
(-2.71137e-21 0 0)
(-7.10543e-15 0 0)
(-2.13163e-14 0 0)
(-1.42109e-14 0 0)
(2.84217e-14 0 0)
(9.9476e-14 0 0)
(2.84217e-14 0 0)
(-4.26326e-14 0 0)
(-7.10543e-15 0 0)
(7.10543e-15 0 0)
(1.42109e-14 0 0)
(-2.13163e-14 0 0)
(-2.84217e-14 0 0)
(1.42109e-14 0 0)
(2.84217e-14 0 0)
(1.42109e-14 0 0)
(2.13163e-14 0 0)
(-6.36111e-22 0 0)
(-2.84217e-14 0 0)
(-4.9738e-14 0 0)
(-4.9738e-14 0 0)
(4.26326e-14 0 0)
(3.55271e-14 0 0)
(-3.55271e-14 0 0)
(-1.42109e-14 0 0)
(2.84217e-14 0 0)
(4.26326e-14 0 0)
(1.9339e-21 0 0)
(1.42109e-14 0 0)
(7.10543e-15 0 0)
(-7.10543e-14 0 0)
(-8.52651e-14 0 0)
(-7.10543e-15 0 0)
(2.13163e-14 0 0)
(2.13163e-14 0 0)
(2.13163e-14 0 0)
(4.9738e-14 0 0)
(-7.10543e-15 0 0)
(-4.26326e-14 0 0)
(2.84217e-14 0 0)
(-3.55271e-14 0 0)
(5.68434e-14 0 0)
(7.10543e-14 0 0)
(-7.10543e-14 0 0)
(7.10543e-15 0 0)
(2.13163e-14 0 0)
(-2.84217e-14 0 0)
(-7.21995e-22 0 0)
(3.55271e-14 0 0)
(-4.73533e-22 0 0)
(-2.13163e-14 0 0)
(1.42109e-14 0 0)
(3.55271e-14 0 0)
(2.13163e-14 0 0)
(-3.55271e-14 0 0)
(-7.10543e-15 0 0)
(1.42109e-14 0 0)
(-7.16811e-23 0 0)
(-2.13163e-14 0 0)
(-6.39488e-14 0 0)
(3.55271e-14 0 0)
(1.56319e-13 0 0)
(4.26326e-14 0 0)
(-1.06581e-13 0 0)
(2.13163e-14 0 0)
(6.39488e-14 0 0)
(-7.10543e-14 0 0)
(-3.55271e-14 0 0)
(2.13163e-14 0 0)
(7.10543e-15 0 0)
(1.15793e-21 0 0)
(-7.10542e-15 0 0)
(-4.9738e-14 0 0)
(-1.12602e-21 0 0)
(4.26326e-14 0 0)
(-1.42109e-14 0 0)
(-1.42109e-14 0 0)
(2.13163e-14 0 0)
(-1.42109e-14 0 0)
(2.84217e-14 0 0)
(5.68434e-14 0 0)
(-4.9738e-14 0 0)
(-7.10543e-15 0 0)
(2.13163e-14 0 0)
(-7.10543e-15 0 0)
(4.26326e-14 0 0)
(-1.42109e-14 0 0)
(-3.55271e-14 0 0)
(-3.55271e-14 0 0)
(-2.84217e-14 0 0)
(2.84217e-14 0 0)
(-4.9738e-14 0 0)
(-2.13163e-14 0 0)
(4.9738e-14 0 0)
(-7.10543e-15 0 0)
(-3.55271e-14 0 0)
(-1.14289e-22 0 0)
(7.10543e-15 0 0)
(9.9476e-14 0 0)
(6.39488e-14 0 0)
(-8.52651e-14 0 0)
(-1.42109e-14 0 0)
(1.42109e-14 0 0)
(-1.42109e-14 0 0)
(7.10543e-15 0 0)
(2.13163e-14 0 0)
(-1.42109e-14 0 0)
(1.42109e-14 0 0)
(2.84217e-14 0 0)
(-2.84217e-14 0 0)
(-5.68434e-14 0 0)
(-1.11449e-22 0 0)
(4.9738e-14 0 0)
(-1.42109e-14 0 0)
(-5.68434e-14 0 0)
(-7.10543e-15 0 0)
(5.68434e-14 0 0)
(2.13163e-14 0 0)
(-2.84217e-14 0 0)
(-4.26326e-14 0 0)
(2.84217e-14 0 0)
(3.55271e-14 0 0)
(-1.42109e-14 0 0)
(1.42109e-14 0 0)
(2.84217e-14 0 0)
(-3.55271e-14 0 0)
(-4.26326e-14 0 0)
(4.9738e-14 0 0)
(-1.14724e-21 0 0)
(-2.13163e-14 0 0)
(9.38544e-22 0 0)
(7.27009e-22 0 0)
(1.42109e-14 0 0)
(-1.42109e-14 0 0)
(-3.55271e-14 0 0)
(-1.42109e-14 0 0)
(2.84217e-14 0 0)
(2.84217e-14 0 0)
(-1.42109e-14 0 0)
(2.18955e-21 0 0)
(4.26326e-14 0 0)
(4.9738e-14 0 0)
(2.84217e-14 0 0)
(-2.13163e-14 0 0)
(-3.55271e-14 0 0)
(-1.42109e-14 0 0)
(-4.26326e-14 0 0)
(-3.55271e-14 0 0)
(2.84217e-14 0 0)
(2.84217e-14 0 0)
(-6.39488e-14 0 0)
(-7.10542e-15 0 0)
(8.52651e-14 0 0)
(5.68434e-14 0 0)
(-2.13163e-14 0 0)
(-3.55271e-14 0 0)
(7.10543e-15 0 0)
(-7.10543e-15 0 0)
(-2.13163e-14 0 0)
(-1.25802e-21 0 0)
(-1.42109e-14 0 0)
(-1.79404e-21 0 0)
(3.55271e-14 0 0)
(1.42109e-14 0 0)
(3.55271e-14 0 0)
(7.10543e-15 0 0)
(1.44616e-21 0 0)
(4.26326e-14 0 0)
(7.10543e-15 0 0)
(-2.84217e-14 0 0)
(-4.26326e-14 0 0)
(-2.13163e-14 0 0)
(4.26326e-14 0 0)
(-2.13163e-14 0 0)
(-7.10543e-15 0 0)
(-7.10543e-15 0 0)
(-1.42109e-14 0 0)
(1.42109e-14 0 0)
(-7.10543e-15 0 0)
(5.58082e-22 0 0)
(1.42109e-14 0 0)
(2.84217e-14 0 0)
(-3.55271e-14 0 0)
(7.10543e-15 0 0)
(5.68434e-14 0 0)
(-2.84217e-14 0 0)
(-7.81597e-14 0 0)
(1.42109e-14 0 0)
(3.55271e-14 0 0)
(-7.81597e-14 0 0)
(1.42109e-14 0 0)
(7.81597e-14 0 0)
(-2.84217e-14 0 0)
(-7.81597e-14 0 0)
(-2.84217e-14 0 0)
(-7.10543e-15 0 0)
(7.10543e-15 0 0)
(9.9476e-14 0 0)
(4.26326e-14 0 0)
(-4.26326e-14 0 0)
(-2.13163e-14 0 0)
(-1.10898e-21 0 0)
(4.9738e-14 0 0)
(-3.55271e-14 0 0)
(-4.26326e-14 0 0)
(5.68434e-14 0 0)
(-2.13163e-14 0 0)
(-2.84217e-14 0 0)
(3.55271e-14 0 0)
(7.10543e-15 0 0)
(-2.13163e-14 0 0)
(-3.55271e-14 0 0)
(-8.00195e-22 0 0)
(5.68434e-14 0 0)
(2.84217e-14 0 0)
(2.84217e-14 0 0)
(7.10543e-15 0 0)
(1.42109e-14 0 0)
(-1.42109e-14 0 0)
(2.84217e-14 0 0)
(7.81597e-14 0 0)
(-7.81597e-14 0 0)
(-9.23706e-14 0 0)
(7.10543e-15 0 0)
(-7.10543e-15 0 0)
(3.55271e-14 0 0)
(4.9738e-14 0 0)
(-1.42109e-14 0 0)
(4.26326e-14 0 0)
(2.13163e-14 0 0)
(-7.10543e-15 0 0)
(-7.10543e-15 0 0)
(-2.13163e-14 0 0)
(-7.10543e-15 0 0)
(1.00889e-21 0 0)
(-7.10543e-15 0 0)
(-7.10543e-15 0 0)
(-7.10543e-15 0 0)
(-4.9738e-14 0 0)
(7.10543e-15 0 0)
(5.68434e-14 0 0)
(3.55271e-14 0 0)
(4.9738e-14 0 0)
(-7.10543e-15 0 0)
(-2.13163e-14 0 0)
(-7.10543e-15 0 0)
(7.10543e-15 0 0)
(4.26326e-14 0 0)
(-2.84217e-14 0 0)
(-4.9738e-14 0 0)
(-9.67617e-22 0 0)
(-7.10543e-15 0 0)
(-7.10543e-14 0 0)
(-1.42109e-14 0 0)
(1.20792e-13 0 0)
(5.68434e-14 0 0)
(-7.81597e-14 0 0)
(-3.55271e-14 0 0)
(2.84217e-14 0 0)
(4.26326e-14 0 0)
(5.68434e-14 0 0)
(-3.55271e-14 0 0)
(-8.52651e-14 0 0)
(2.13163e-14 0 0)
(2.13163e-14 0 0)
(-8.52651e-14 0 0)
(4.26326e-14 0 0)
(4.26326e-14 0 0)
(-6.39488e-14 0 0)
(2.13163e-14 0 0)
(2.84217e-14 0 0)
(-3.55271e-14 0 0)
(-5.68434e-14 0 0)
(4.9738e-14 0 0)
(2.13163e-14 0 0)
(-1.42109e-14 0 0)
(7.10543e-15 0 0)
(2.13163e-14 0 0)
(4.9738e-14 0 0)
(-7.10543e-15 0 0)
(-1.42109e-14 0 0)
(4.26326e-14 0 0)
(7.10542e-15 0 0)
(-7.81597e-14 0 0)
(-2.84217e-14 0 0)
(-6.39488e-14 0 0)
(1.22043e-21 0 0)
(9.23706e-14 0 0)
(-3.55271e-14 0 0)
(-4.26326e-14 0 0)
(5.68434e-14 0 0)
(5.68434e-14 0 0)
(-2.13163e-14 0 0)
(-3.55271e-14 0 0)
(2.13163e-14 0 0)
(-7.10543e-15 0 0)
(-7.10543e-15 0 0)
(2.84217e-14 0 0)
(-3.55271e-14 0 0)
(7.10543e-15 0 0)
(2.84217e-14 0 0)
(-7.10543e-15 0 0)
(1.33906e-21 0 0)
(-4.26326e-14 0 0)
(-7.10543e-15 0 0)
(1.42109e-14 0 0)
(-8.52651e-14 0 0)
(-7.10543e-15 0 0)
(7.81597e-14 0 0)
(-1.42109e-14 0 0)
(1.25167e-21 0 0)
(1.42109e-14 0 0)
(3.55271e-14 0 0)
(7.81597e-14 0 0)
(-5.68434e-14 0 0)
(-7.10543e-14 0 0)
(2.84217e-14 0 0)
(3.55271e-14 0 0)
(-4.26326e-14 0 0)
(-7.81597e-14 0 0)
(1.42109e-14 0 0)
(6.39488e-14 0 0)
(-2.84217e-14 0 0)
(-3.55271e-14 0 0)
(7.10543e-15 0 0)
(4.9738e-14 0 0)
(5.68434e-14 0 0)
(-2.13163e-14 0 0)
(-7.10543e-15 0 0)
(-2.13163e-14 0 0)
(1.42109e-14 0 0)
(4.26326e-14 0 0)
(-2.84217e-14 0 0)
(-2.13163e-14 0 0)
(-1.42109e-14 0 0)
(7.10543e-15 0 0)
(-7.10543e-15 0 0)
(-7.10543e-15 0 0)
(4.26326e-14 0 0)
(1.42109e-14 0 0)
(7.10543e-15 0 0)
(-1.42109e-14 0 0)
(-7.10543e-15 0 0)
(-4.77041e-22 0 0)
(2.13163e-14 0 0)
(-1.42109e-14 0 0)
(7.10543e-15 0 0)
(7.10543e-15 0 0)
(-7.10543e-15 0 0)
(-5.68434e-14 0 0)
(-2.84217e-14 0 0)
(9.9476e-14 0 0)
(3.55271e-14 0 0)
(1.42109e-14 0 0)
(-4.26326e-14 0 0)
(-4.9738e-14 0 0)
(-6.39488e-14 0 0)
(-1.71251e-21 0 0)
(1.13687e-13 0 0)
(4.26326e-14 0 0)
(-3.55271e-14 0 0)
(-2.13163e-14 0 0)
(-7.10543e-15 0 0)
(-4.9738e-14 0 0)
(-4.26326e-14 0 0)
(-7.81597e-14 0 0)
(-1.42109e-14 0 0)
(6.39488e-14 0 0)
(1.42109e-14 0 0)
(-4.26326e-14 0 0)
(2.13163e-14 0 0)
(4.9738e-14 0 0)
(-2.84217e-14 0 0)
(-2.84217e-14 0 0)
(7.10543e-15 0 0)
(4.9738e-14 0 0)
(2.84217e-14 0 0)
(-1.42109e-14 0 0)
(-1.42109e-14 0 0)
(7.10543e-15 0 0)
(-9.1866e-22 0 0)
(-7.10543e-15 0 0)
(-2.13163e-14 0 0)
(-3.19342e-21 0 0)
(2.13163e-14 0 0)
(-7.10543e-15 0 0)
(1.22327e-21 0 0)
(1.42109e-14 0 0)
(2.13163e-14 0 0)
(-1.42109e-14 0 0)
(7.10543e-15 0 0)
(3.55271e-14 0 0)
(-3.55271e-14 0 0)
(-2.13163e-14 0 0)
(4.9738e-14 0 0)
(7.10543e-15 0 0)
(-1.42109e-14 0 0)
(7.10543e-15 0 0)
(1.45468e-21 0 0)
(-2.13163e-14 0 0)
(2.84217e-14 0 0)
(2.13163e-14 0 0)
(-7.10543e-14 0 0)
(-7.10543e-15 0 0)
(2.84217e-14 0 0)
(2.84217e-14 0 0)
(4.26326e-14 0 0)
(-6.39488e-14 0 0)
(-2.84217e-14 0 0)
(8.52651e-14 0 0)
(4.26326e-14 0 0)
(1.42109e-14 0 0)
(4.97381e-14 0 0)
(7.10544e-14 0 0)
(2.06058e-13 0 0)
(3.76588e-13 0 0)
(6.46594e-13 0 0)
(1.05871e-12 0 0)
(1.66267e-12 0 0)
(2.79954e-12 0 0)
(4.68959e-12 0 0)
(7.65255e-12 0 0)
(1.23848e-11 0 0)
(2.00586e-11 0 0)
(3.23368e-11 0 0)
(5.1692e-11 0 0)
(8.22951e-11 0 0)
(1.30335e-10 0 0)
(2.05134e-10 0 0)
(3.21507e-10 0 0)
(5.00983e-10 0 0)
(7.75942e-10 0 0)
(1.19496e-09 0 0)
(1.82997e-09 0 0)
(2.78621e-09 0 0)
(4.21707e-09 0 0)
(6.345e-09 0 0)
(9.48954e-09 0 0)
(1.41064e-08 0 0)
(2.08406e-08 0 0)
(3.05989e-08 0 0)
(4.46443e-08 0 0)
(6.47227e-08 0 0)
(9.32276e-08 0 0)
(1.33411e-07 0 0)
(1.89656e-07 0 0)
(2.6781e-07 0 0)
(3.75609e-07 0 0)
(5.23182e-07 0 0)
(7.23662e-07 0 0)
(9.93899e-07 0 0)
(1.35528e-06 0 0)
(1.83462e-06 0 0)
(2.46519e-06 0 0)
(3.28768e-06 0 0)
(4.35125e-06 0 0)
(5.71438e-06 0 0)
(7.44562e-06 0 0)
(9.62393e-06 0 0)
(1.23386e-05 0 0)
(1.56883e-05 0 0)
(1.978e-05 0 0)
(2.47257e-05 0 0)
(3.06392e-05 0 0)
(3.76312e-05 0 0)
(4.58025e-05 0 0)
(5.52375e-05 0 0)
(6.59951e-05 0 0)
(7.81004e-05 0 0)
(9.15355e-05 0 0)
(0.000106231 0 0)
(0.00012206 0 0)
(0.000138832 0 0)
(0.000156292 0 0)
(0.000174123 0 0)
(0.000191951 0 0)
(0.000209355 0 0)
(0.000225884 0 0)
(0.000241071 0 0)
(0.000254457 0 0)
(0.00026561 0 0)
(0.00027415 0 0)
(0.000279762 0 0)
(0.000282219 0 0)
(0.000281388 0 0)
(0.000277241 0 0)
(0.000269851 0 0)
(0.00025939 0 0)
(0.000246121 0 0)
(0.000230377 0 0)
(0.00021255 0 0)
(0.000193072 0 0)
(0.000172393 0 0)
(0.000150963 0 0)
(0.000129218 0 0)
(0.000107565 0 0)
(8.63696e-05 0 0)
(6.59479e-05 0 0)
(4.65635e-05 0 0)
(2.84236e-05 0 0)
(1.16802e-05 0 0)
(-3.56753e-06 0 0)
(-1.72691e-05 0 0)
(-2.94169e-05 0 0)
(-4.00404e-05 0 0)
(-4.91995e-05 0 0)
(-5.69773e-05 0 0)
(-6.34744e-05 0 0)
(-6.88033e-05 0 0)
(-7.30826e-05 0 0)
(-7.64324e-05 0 0)
(-7.89703e-05 0 0)
(-8.08087e-05 0 0)
(-8.20521e-05 0 0)
(-8.27966e-05 0 0)
(-8.31278e-05 0 0)
(-8.31218e-05 0 0)
(-8.28442e-05 0 0)
(-8.23512e-05 0 0)
(-8.16902e-05 0 0)
(-8.09007e-05 0 0)
(-8.00148e-05 0 0)
(-7.90587e-05 0 0)
(-7.80536e-05 0 0)
(-7.70161e-05 0 0)
(-7.59592e-05 0 0)
(-7.48934e-05 0 0)
(-7.38265e-05 0 0)
(-7.27647e-05 0 0)
(-7.17128e-05 0 0)
(-7.06744e-05 0 0)
(-6.96523e-05 0 0)
(-6.86487e-05 0 0)
(-6.76651e-05 0 0)
(-6.67029e-05 0 0)
(-6.57628e-05 0 0)
(-6.48455e-05 0 0)
(-6.39515e-05 0 0)
(-6.30809e-05 0 0)
(-6.22337e-05 0 0)
(-6.141e-05 0 0)
(-6.06096e-05 0 0)
(-5.98321e-05 0 0)
(-5.90772e-05 0 0)
(-5.83446e-05 0 0)
(-5.76339e-05 0 0)
(-5.69446e-05 0 0)
(-5.62763e-05 0 0)
(-5.56287e-05 0 0)
(-5.50013e-05 0 0)
(-5.43938e-05 0 0)
(-5.38058e-05 0 0)
(-5.32369e-05 0 0)
(-5.26865e-05 0 0)
(-5.21542e-05 0 0)
(-5.16391e-05 0 0)
(-5.11405e-05 0 0)
(-5.06572e-05 0 0)
(-5.01879e-05 0 0)
(-4.97312e-05 0 0)
(-4.92856e-05 0 0)
(-4.88491e-05 0 0)
(-4.84199e-05 0 0)
(-4.79963e-05 0 0)
(-4.75763e-05 0 0)
(-4.71582e-05 0 0)
(-4.67404e-05 0 0)
(-4.63217e-05 0 0)
(-4.5901e-05 0 0)
(-4.54775e-05 0 0)
(-4.50508e-05 0 0)
(-4.46206e-05 0 0)
(-4.41871e-05 0 0)
(-4.37506e-05 0 0)
(-4.33117e-05 0 0)
(-4.2871e-05 0 0)
(-4.24293e-05 0 0)
(-4.19874e-05 0 0)
(-4.15462e-05 0 0)
(-4.11065e-05 0 0)
(-4.06692e-05 0 0)
(-4.02349e-05 0 0)
(-3.98044e-05 0 0)
(-3.93782e-05 0 0)
(-3.89569e-05 0 0)
(-3.8541e-05 0 0)
(-3.81312e-05 0 0)
(-3.77273e-05 0 0)
(-3.73312e-05 0 0)
(-3.69407e-05 0 0)
(-3.65609e-05 0 0)
(-3.61838e-05 0 0)
(-3.58242e-05 0 0)
(-3.54581e-05 0 0)
(-3.51228e-05 0 0)
(-3.47655e-05 0 0)
(-3.44509e-05 0 0)
(-3.41172e-05 0 0)
(-3.3783e-05 0 0)
(-3.35395e-05 0 0)
(-3.30781e-05 0 0)
(-3.30336e-05 0 0)
(-3.23543e-05 0 0)
(-3.25e-05 0 0)
(-3.17607e-05 0 0)
(-3.18447e-05 0 0)
(-3.13136e-05 0 0)
(-3.12225e-05 0 0)
(-3.0722e-05 0 0)
(-3.07019e-05 0 0)
(-3.01286e-05 0 0)
(-3.00023e-05 0 0)
(-2.96686e-05 0 0)
(-2.951e-05 0 0)
(-2.88862e-05 0 0)
(-2.91103e-05 0 0)
(-2.87776e-05 0 0)
(-2.87675e-05 0 0)
(-2.71384e-05 0 0)
(-2.81939e-05 0 0)
(-2.70709e-05 0 0)
(-2.73508e-05 0 0)
(-2.7104e-05 0 0)
(-2.74975e-05 0 0)
(-2.87165e-05 0 0)
(-2.85864e-05 0 0)
(-2.17129e-05 0 0)
(-7.40036e-06 0 0)
(-1.3314e-05 0 0)
(-1.70353e-05 0 0)
(-1.60072e-05 0 0)
(-1.59912e-05 0 0)
(-1.564e-05 0 0)
(-1.548e-05 0 0)
(-1.51883e-05 0 0)
(-1.51339e-05 0 0)
(-1.47823e-05 0 0)
(-1.53031e-05 0 0)
(-1.45706e-05 0 0)
(-1.50569e-05 0 0)
(-1.37896e-05 0 0)
(-1.51762e-05 0 0)
(-1.34772e-05 0 0)
(-1.48894e-05 0 0)
(-1.3178e-05 0 0)
(-1.42011e-05 0 0)
(-1.37905e-05 0 0)
(-1.25036e-05 0 0)
(-1.47039e-05 0 0)
(-1.11259e-05 0 0)
(-4.99216e-06 0 0)
(-1.96365e-05 0 0)
(-1.87408e-05 0 0)
(-0.000110861 0 0)
(8.76598e-05 0 0)
(-2.17022e-05 0 0)
(-3.36031e-07 0 0)
(-7.05994e-06 0 0)
(-1.24604e-05 0 0)
(-1.7877e-05 0 0)
(-4.85687e-06 0 0)
(-1.42933e-06 0 0)
(-1.52933e-05 0 0)
(-1.69958e-05 0 0)
(-4.58917e-06 0 0)
(-6.97873e-06 0 0)
(-1.04051e-05 0 0)
(-1.06876e-05 0 0)
(-6.54344e-06 0 0)
(-7.78907e-06 0 0)
(-8.00814e-06 0 0)
(-8.31367e-06 0 0)
(-6.13702e-06 0 0)
(-7.85266e-06 0 0)
(-6.00443e-06 0 0)
(-6.86479e-06 0 0)
(-5.36002e-06 0 0)
(-6.4054e-06 0 0)
(-4.87243e-06 0 0)
(-5.73783e-06 0 0)
(-4.31819e-06 0 0)
(-5.38414e-06 0 0)
(-3.59857e-06 0 0)
(-4.71948e-06 0 0)
(-3.17476e-06 0 0)
(-4.10758e-06 0 0)
(-2.57392e-06 0 0)
(-3.50887e-06 0 0)
(-1.99228e-06 0 0)
(-2.86548e-06 0 0)
(-1.87713e-06 0 0)
(-1.09224e-06 0 0)
(-4.48191e-06 0 0)
(1.72831e-06 0 0)
(-5.29035e-06 0 0)
(1.06418e-06 0 0)
(2.17518e-06 0 0)
(-1.88368e-06 0 0)
(-5.71288e-07 0 0)
(-4.34386e-07 0 0)
(-1.66357e-06 0 0)
(1.2103e-06 0 0)
(2.24865e-06 0 0)
(-4.20231e-08 0 0)
(-6.62017e-07 0 0)
(3.58181e-07 0 0)
(1.37495e-06 0 0)
(4.60807e-07 0 0)
(2.53537e-06 0 0)
(1.44912e-06 0 0)
(1.958e-06 0 0)
(2.52336e-06 0 0)
(3.77857e-06 0 0)
(2.82602e-06 0 0)
(2.41208e-06 0 0)
(3.14823e-06 0 0)
(4.18423e-06 0 0)
(3.16948e-06 0 0)
(4.11029e-06 0 0)
(3.38924e-06 0 0)
(2.59452e-06 0 0)
(-1.71962e-05 0 0)
(-8.82265e-05 0 0)
(-0.000239021 0 0)
(-0.00108093 0 0)
(-0.00206124 0 0)
(0.0032706 0 0)
)
;

boundaryField
{
    sideLeft
    {
        type            symmetryPlane;
    }
    sideRight
    {
        type            calculated;
        value           uniform (-0.427905 0 0);
    }
    topbottom
    {
        type            empty;
    }
    frontback
    {
        type            empty;
    }
}


// ************************************************************************* //
