/*--------------------------------*- C++ -*----------------------------------*\
| =========                 |                                                 |
| \\      /  F ield         | OpenFOAM: The Open Source CFD Toolbox           |
|  \\    /   O peration     | Version:  2.4.0                                 |
|   \\  /    A nd           | Web:      www.OpenFOAM.org                      |
|    \\/     M anipulation  |                                                 |
\*---------------------------------------------------------------------------*/
FoamFile
{
    version     2.0;
    format      ascii;
    class       volScalarField;
    location    "0.14";
    object      p;
}
// * * * * * * * * * * * * * * * * * * * * * * * * * * * * * * * * * * * * * //

dimensions      [1 -1 -2 0 0 0 0];

internalField   nonuniform List<scalar> 
1000
(
5e+06
5e+06
5e+06
5e+06
5e+06
5e+06
5e+06
5e+06
5e+06
5e+06
5e+06
5e+06
5e+06
5e+06
5e+06
5e+06
5e+06
5e+06
5e+06
5e+06
5e+06
5e+06
5e+06
5e+06
5e+06
5e+06
5e+06
5e+06
5e+06
5e+06
5e+06
5e+06
5e+06
5e+06
5e+06
5e+06
5e+06
5e+06
5e+06
5e+06
5e+06
5e+06
5e+06
5e+06
5e+06
5e+06
5e+06
5e+06
5e+06
5e+06
5e+06
5e+06
5e+06
5e+06
5e+06
5e+06
5e+06
5e+06
5e+06
5e+06
5e+06
5e+06
5e+06
5e+06
5e+06
5e+06
5e+06
5e+06
5e+06
5e+06
5e+06
5e+06
5e+06
5e+06
5e+06
5e+06
5e+06
5e+06
5e+06
5e+06
5e+06
5e+06
5e+06
5e+06
5e+06
5e+06
5e+06
5e+06
5e+06
5e+06
5e+06
5e+06
5e+06
5e+06
5e+06
5e+06
5e+06
5e+06
5e+06
5e+06
5e+06
5e+06
5e+06
5e+06
5e+06
5e+06
5e+06
5e+06
5e+06
5e+06
5e+06
5e+06
5e+06
5e+06
5e+06
5e+06
5e+06
5e+06
5e+06
5e+06
5e+06
5e+06
5e+06
5e+06
5e+06
5e+06
5e+06
5e+06
5e+06
5e+06
5e+06
5e+06
5e+06
5e+06
5e+06
5e+06
5e+06
5e+06
5e+06
5e+06
5e+06
5e+06
5e+06
5e+06
5e+06
5e+06
5e+06
5e+06
5e+06
5e+06
5e+06
5e+06
5e+06
5e+06
5e+06
5e+06
5e+06
5e+06
5e+06
5e+06
5e+06
5e+06
5e+06
5e+06
5e+06
5e+06
5e+06
5e+06
5e+06
5e+06
5e+06
5e+06
5e+06
5e+06
5e+06
5e+06
5e+06
5e+06
5e+06
5e+06
5e+06
5e+06
5e+06
5e+06
5e+06
5e+06
5e+06
5e+06
5e+06
5e+06
5e+06
5e+06
5e+06
5e+06
5e+06
5e+06
5e+06
5e+06
5e+06
5e+06
5e+06
5e+06
5e+06
5e+06
5e+06
5e+06
5e+06
5e+06
5e+06
5e+06
5e+06
5e+06
5e+06
5e+06
5e+06
5e+06
5e+06
5e+06
5e+06
5e+06
5e+06
5e+06
5e+06
5e+06
5e+06
5e+06
5e+06
5e+06
5e+06
5e+06
5e+06
5e+06
5e+06
5e+06
5e+06
5e+06
5e+06
5e+06
5e+06
5e+06
5e+06
5e+06
5e+06
5e+06
5e+06
5e+06
5e+06
5e+06
5e+06
5e+06
5e+06
5e+06
5e+06
5e+06
5e+06
5e+06
5e+06
5e+06
5e+06
5e+06
5e+06
5e+06
5e+06
5e+06
5e+06
5e+06
5e+06
5e+06
5e+06
5e+06
5e+06
5e+06
5e+06
5e+06
5e+06
5e+06
5e+06
5e+06
5e+06
5e+06
5e+06
5e+06
5e+06
5e+06
5e+06
5e+06
5e+06
5e+06
5e+06
5e+06
5e+06
5e+06
5e+06
5e+06
5e+06
5e+06
5e+06
5e+06
5e+06
5e+06
5e+06
5e+06
5e+06
5e+06
5e+06
5e+06
5e+06
5e+06
5e+06
5e+06
5e+06
5e+06
5e+06
5e+06
5e+06
5e+06
5e+06
5e+06
5e+06
5e+06
5e+06
5e+06
5e+06
5e+06
5e+06
5e+06
5e+06
5e+06
5e+06
5e+06
5e+06
5e+06
5e+06
5e+06
5e+06
5e+06
5e+06
5e+06
5e+06
5e+06
5e+06
5e+06
5e+06
5e+06
5e+06
5e+06
5e+06
5e+06
5e+06
5e+06
5e+06
5e+06
5e+06
5e+06
5e+06
5e+06
5e+06
5e+06
5e+06
5e+06
5e+06
5e+06
5e+06
5e+06
5e+06
5e+06
5e+06
5e+06
5e+06
5e+06
5e+06
5e+06
5e+06
5e+06
5e+06
5e+06
5e+06
5e+06
5e+06
5e+06
5e+06
5e+06
5e+06
5e+06
5e+06
5e+06
5e+06
5e+06
5e+06
5e+06
5e+06
5e+06
5e+06
5e+06
5e+06
5e+06
5e+06
5e+06
5e+06
5e+06
5e+06
5e+06
5e+06
5e+06
5e+06
5e+06
5e+06
5e+06
5e+06
5e+06
5e+06
5e+06
5e+06
5e+06
5e+06
5e+06
5e+06
5e+06
5e+06
5e+06
5e+06
5e+06
5e+06
5e+06
5e+06
5e+06
5e+06
5e+06
5e+06
5e+06
5e+06
5e+06
5e+06
5e+06
5e+06
5e+06
5e+06
5e+06
5e+06
5e+06
5e+06
5e+06
5e+06
5e+06
5e+06
5e+06
5e+06
5e+06
5e+06
5e+06
5e+06
5e+06
5e+06
5e+06
5e+06
5e+06
5e+06
5e+06
5e+06
5e+06
5e+06
5e+06
5e+06
5e+06
5e+06
5e+06
5e+06
5e+06
5e+06
5e+06
5e+06
5e+06
5e+06
5e+06
5e+06
5e+06
5e+06
5e+06
5e+06
5e+06
5e+06
5e+06
5e+06
5e+06
5e+06
5e+06
5e+06
5e+06
5e+06
5e+06
5e+06
5e+06
5e+06
5e+06
5e+06
5e+06
5e+06
5e+06
5e+06
5e+06
5e+06
5e+06
5e+06
5e+06
5e+06
5e+06
5e+06
5e+06
5e+06
5e+06
5e+06
5e+06
5e+06
5e+06
5e+06
5e+06
5e+06
5e+06
5e+06
5e+06
5e+06
5e+06
5e+06
5e+06
5e+06
5e+06
5e+06
5e+06
4.99999e+06
4.99999e+06
4.99999e+06
4.99999e+06
4.99998e+06
4.99998e+06
4.99997e+06
4.99996e+06
4.99995e+06
4.99994e+06
4.99992e+06
4.9999e+06
4.99987e+06
4.99984e+06
4.9998e+06
4.99974e+06
4.99968e+06
4.9996e+06
4.9995e+06
4.99938e+06
4.99924e+06
4.99907e+06
4.99886e+06
4.99862e+06
4.99833e+06
4.99799e+06
4.99759e+06
4.99712e+06
4.99658e+06
4.99596e+06
4.99524e+06
4.99442e+06
4.99348e+06
4.99242e+06
4.99123e+06
4.98989e+06
4.98839e+06
4.98673e+06
4.98489e+06
4.98286e+06
4.98065e+06
4.97823e+06
4.9756e+06
4.97275e+06
4.96969e+06
4.9664e+06
4.96289e+06
4.95915e+06
4.95518e+06
4.95098e+06
4.94657e+06
4.94193e+06
4.93707e+06
4.93201e+06
4.92674e+06
4.92128e+06
4.91562e+06
4.90979e+06
4.90378e+06
4.89761e+06
4.89129e+06
4.88482e+06
4.87822e+06
4.8715e+06
4.86466e+06
4.85771e+06
4.85067e+06
4.84354e+06
4.83633e+06
4.82904e+06
4.8217e+06
4.8143e+06
4.80685e+06
4.79935e+06
4.79182e+06
4.78426e+06
4.77667e+06
4.76906e+06
4.76143e+06
4.75379e+06
4.74614e+06
4.73848e+06
4.73082e+06
4.72316e+06
4.7155e+06
4.70784e+06
4.70019e+06
4.69255e+06
4.68491e+06
4.67728e+06
4.66966e+06
4.66205e+06
4.65446e+06
4.64687e+06
4.6393e+06
4.63174e+06
4.62419e+06
4.61665e+06
4.60913e+06
4.60162e+06
4.59413e+06
4.58664e+06
4.57917e+06
4.57172e+06
4.56427e+06
4.55684e+06
4.54942e+06
4.54201e+06
4.53461e+06
4.52723e+06
4.51986e+06
4.51249e+06
4.50514e+06
4.4978e+06
4.49047e+06
4.48316e+06
4.47585e+06
4.46855e+06
4.46126e+06
4.45398e+06
4.44671e+06
4.43945e+06
4.4322e+06
4.42496e+06
4.41773e+06
4.4105e+06
4.40329e+06
4.39608e+06
4.38888e+06
4.38168e+06
4.3745e+06
4.36732e+06
4.36015e+06
4.35299e+06
4.34584e+06
4.33869e+06
4.33155e+06
4.32441e+06
4.31729e+06
4.31017e+06
4.30305e+06
4.29595e+06
4.28885e+06
4.28175e+06
4.27466e+06
4.26758e+06
4.2605e+06
4.25344e+06
4.24637e+06
4.23931e+06
4.23226e+06
4.22522e+06
4.21818e+06
4.21114e+06
4.20412e+06
4.19709e+06
4.19008e+06
4.18306e+06
4.17606e+06
4.16906e+06
4.16206e+06
4.15508e+06
4.14809e+06
4.14111e+06
4.13414e+06
4.12717e+06
4.12021e+06
4.11325e+06
4.1063e+06
4.09935e+06
4.09241e+06
4.08547e+06
4.07853e+06
4.07161e+06
4.06468e+06
4.05776e+06
4.05084e+06
4.04393e+06
4.03702e+06
4.03012e+06
4.02322e+06
4.01632e+06
4.00943e+06
4.00254e+06
3.99566e+06
3.98877e+06
3.98189e+06
3.97502e+06
3.96815e+06
3.96128e+06
3.95441e+06
3.94754e+06
3.94068e+06
3.93382e+06
3.92697e+06
3.92011e+06
3.91326e+06
3.90641e+06
3.89956e+06
3.89271e+06
3.88587e+06
3.87902e+06
3.87218e+06
3.86534e+06
3.85851e+06
3.85167e+06
3.84483e+06
3.838e+06
3.83116e+06
3.82433e+06
3.8175e+06
3.81067e+06
3.80384e+06
3.79701e+06
3.79018e+06
3.78336e+06
3.77653e+06
3.7697e+06
3.76287e+06
3.75605e+06
3.74922e+06
3.74239e+06
3.73557e+06
3.72874e+06
3.72191e+06
3.71508e+06
3.70825e+06
3.70142e+06
3.69459e+06
3.68776e+06
3.68093e+06
3.6741e+06
3.66726e+06
3.66042e+06
3.65359e+06
3.64675e+06
3.63991e+06
3.63306e+06
3.62622e+06
3.61937e+06
3.61252e+06
3.60567e+06
3.59881e+06
3.59195e+06
3.58509e+06
3.57823e+06
3.57136e+06
3.56449e+06
3.55762e+06
3.55074e+06
3.54386e+06
3.53697e+06
3.53008e+06
3.52319e+06
3.51629e+06
3.50939e+06
3.50248e+06
3.49557e+06
3.48865e+06
3.48173e+06
3.4748e+06
3.46786e+06
3.46092e+06
3.45398e+06
3.44703e+06
3.44007e+06
3.4331e+06
3.42613e+06
3.41915e+06
3.41217e+06
3.40517e+06
3.39817e+06
3.39116e+06
3.38415e+06
3.37712e+06
3.37009e+06
3.36304e+06
3.35599e+06
3.34893e+06
3.34186e+06
3.33478e+06
3.32769e+06
3.32059e+06
3.31347e+06
3.30635e+06
3.29922e+06
3.29207e+06
3.28491e+06
3.27774e+06
3.27056e+06
3.26335e+06
3.25615e+06
3.24892e+06
3.24168e+06
3.23442e+06
3.22716e+06
3.21987e+06
3.21257e+06
3.20526e+06
3.19792e+06
3.19059e+06
3.18322e+06
3.17585e+06
3.16844e+06
3.16101e+06
3.15356e+06
3.1461e+06
3.13862e+06
3.13111e+06
3.12358e+06
3.11603e+06
3.10846e+06
3.10086e+06
3.09324e+06
3.08559e+06
3.07792e+06
3.07022e+06
3.06249e+06
3.05474e+06
3.04695e+06
3.03914e+06
3.03129e+06
3.02341e+06
3.0155e+06
3.00755e+06
2.99957e+06
2.99156e+06
2.9835e+06
2.97541e+06
2.96728e+06
2.9591e+06
2.95088e+06
2.94262e+06
2.9343e+06
2.92596e+06
2.91755e+06
2.9091e+06
2.9006e+06
2.89204e+06
2.88342e+06
2.87475e+06
2.86601e+06
2.85721e+06
2.84835e+06
2.83942e+06
2.83041e+06
2.82133e+06
2.81217e+06
2.80293e+06
2.7936e+06
2.78419e+06
2.77468e+06
2.76507e+06
2.75536e+06
2.74555e+06
2.73562e+06
2.72558e+06
2.71541e+06
2.70511e+06
2.69468e+06
2.6841e+06
2.67337e+06
2.66249e+06
2.65146e+06
2.64027e+06
2.62893e+06
2.61743e+06
2.60578e+06
2.59402e+06
2.58215e+06
2.57024e+06
2.55833e+06
2.5465e+06
2.53493e+06
2.52381e+06
2.51316e+06
2.50295e+06
2.49308e+06
2.48345e+06
2.47394e+06
2.46444e+06
2.45491e+06
2.44529e+06
2.43556e+06
2.42574e+06
2.41583e+06
2.40585e+06
2.39584e+06
2.38582e+06
2.3758e+06
2.3658e+06
2.35582e+06
2.34586e+06
2.33591e+06
2.32597e+06
2.31603e+06
2.3061e+06
2.29617e+06
2.28624e+06
2.27631e+06
2.26639e+06
2.25649e+06
2.24661e+06
2.23674e+06
2.22689e+06
2.21706e+06
2.20724e+06
2.19744e+06
2.18764e+06
2.17786e+06
2.16809e+06
2.15833e+06
2.1486e+06
2.13888e+06
2.1292e+06
2.11955e+06
2.10994e+06
2.10037e+06
2.09085e+06
2.08139e+06
2.07197e+06
2.0626e+06
2.05327e+06
2.04399e+06
2.03474e+06
2.02554e+06
2.01637e+06
2.00725e+06
1.99817e+06
1.98913e+06
1.98015e+06
1.97121e+06
1.96234e+06
1.95355e+06
1.94486e+06
1.93628e+06
1.92781e+06
1.91945e+06
1.91125e+06
1.90324e+06
1.89543e+06
1.88784e+06
1.88046e+06
1.8733e+06
1.8664e+06
1.85984e+06
1.85362e+06
1.84773e+06
1.84217e+06
1.8369e+06
1.83192e+06
1.82717e+06
1.82247e+06
1.81778e+06
1.81352e+06
1.8104e+06
1.80846e+06
1.8077e+06
1.80847e+06
1.81108e+06
1.81561e+06
1.8224e+06
1.83179e+06
1.84429e+06
1.86019e+06
1.87975e+06
1.9029e+06
1.93095e+06
1.96446e+06
1.99977e+06
2.02736e+06
2.03886e+06
)
;

boundaryField
{
    sideLeft
    {
        type            symmetryPlane;
    }
    sideRight
    {
        type            myWaveTransmissive;
        phi             phi.air;
        rho             rho.air;
        psi             thermo:psi.air;
        gamma           1.4;
        fieldInf        100000;
        lInf            10;
        value           uniform 2.03478e+06;
    }
    topbottom
    {
        type            empty;
    }
    frontback
    {
        type            empty;
    }
}


// ************************************************************************* //
