/*--------------------------------*- C++ -*----------------------------------*\
| =========                 |                                                 |
| \\      /  F ield         | OpenFOAM: The Open Source CFD Toolbox           |
|  \\    /   O peration     | Version:  2.4.0                                 |
|   \\  /    A nd           | Web:      www.OpenFOAM.org                      |
|    \\/     M anipulation  |                                                 |
\*---------------------------------------------------------------------------*/
FoamFile
{
    version     2.0;
    format      ascii;
    class       surfaceScalarField;
    location    "0.14";
    object      phi.air;
}
// * * * * * * * * * * * * * * * * * * * * * * * * * * * * * * * * * * * * * //

dimensions      [0 3 -1 0 0 0 0];

internalField   nonuniform List<scalar> 
999
(
-4.82491e-13
-9.345e-13
-1.33906e-12
-2.60618e-12
-2.44374e-12
-1.51134e-12
-1.62782e-12
-2.26575e-12
-2.83555e-12
-2.60753e-12
-2.41005e-12
-3.19902e-12
-3.15309e-12
-2.60336e-12
-2.27146e-12
-1.95719e-12
-1.58415e-12
-1.41728e-12
-8.68318e-13
-1.14819e-12
-1.13218e-12
-1.98782e-12
-2.40903e-12
-2.39479e-12
-1.92599e-12
-2.79824e-12
-4.37551e-12
-3.36438e-12
-3.10324e-12
-4.47659e-12
-3.33063e-12
-3.55298e-12
-2.3405e-12
-3.39727e-12
-4.2713e-12
-4.19942e-12
-4.97252e-12
-4.44915e-12
-5.46858e-12
-4.41502e-12
-4.79307e-12
-5.27418e-12
-3.99595e-12
-3.10592e-12
-3.04395e-12
-3.42315e-12
-2.52123e-12
-2.37917e-12
-2.75083e-12
-2.58829e-12
-8.76225e-13
-2.07112e-12
-1.30083e-12
-4.47654e-13
-8.34985e-13
9.44171e-14
7.54084e-13
7.66022e-13
1.75475e-12
1.08864e-12
1.9883e-12
3.18417e-12
3.53684e-12
5.02607e-12
4.95997e-12
3.41786e-12
2.66689e-12
2.63741e-12
3.20502e-12
2.92116e-12
2.34939e-12
2.1942e-12
4.29894e-13
1.03692e-12
5.00877e-13
-3.98302e-14
-2.27374e-13
-4.2838e-13
-7.10543e-14
-1.42107e-14
1.00939e-12
5.06951e-13
-2.80822e-13
1.29851e-13
3.12639e-13
1.1273e-12
5.75727e-13
-8.28199e-13
-1.58275e-12
-2.29816e-12
-2.63096e-12
-3.24233e-12
-4.22409e-12
-4.61997e-12
-3.2704e-12
-3.9136e-12
-3.03966e-12
-3.88985e-12
-4.74136e-12
-3.25872e-12
-3.40564e-12
-3.78316e-12
-2.93312e-12
-3.43261e-12
-3.57602e-12
-3.63742e-12
-3.48945e-12
-3.35389e-12
-1.99724e-12
-2.20413e-12
-1.51598e-12
-7.12169e-13
-6.7139e-13
-4.79618e-13
8.60671e-13
8.06266e-13
1.98952e-13
-6.11068e-13
-2.25585e-13
3.92609e-13
1.21255e-12
1.83322e-12
4.69961e-13
5.50264e-13
7.37913e-13
2.6623e-12
2.8502e-12
4.00561e-12
3.18843e-12
2.08542e-12
3.10856e-12
2.83762e-12
2.91182e-12
2.12978e-12
6.11418e-13
1.42116e-14
-1.02481e-12
-3.12639e-13
2.97929e-13
6.63384e-13
1.24232e-12
4.51032e-13
9.11001e-13
1.72062e-12
1.43351e-12
2.3436e-12
3.04085e-12
2.65889e-12
2.03823e-12
2.51784e-12
1.63812e-12
2.60358e-12
3.82875e-12
4.40281e-12
4.88981e-12
5.6466e-12
5.95709e-12
5.26401e-12
5.102e-12
5.08222e-12
5.10095e-12
6.94207e-12
4.8158e-12
5.23582e-12
6.25624e-12
5.86991e-12
5.67138e-12
5.03828e-12
4.89495e-12
4.41086e-12
4.66229e-12
4.68077e-12
4.84975e-12
4.54585e-12
5.2851e-12
4.36569e-12
4.69e-12
3.82093e-12
3.30108e-12
3.58755e-12
2.51867e-12
2.79241e-12
2.78497e-12
2.00217e-12
7.01396e-13
1.6045e-12
5.52305e-13
1.30976e-12
1.04702e-12
4.68958e-13
-1.7053e-13
-1.66989e-12
-7.87851e-13
-8.64181e-13
-1.0221e-12
-1.01953e-12
-8.65714e-13
-6.31429e-13
-2.40853e-14
-1.11062e-13
3.26851e-13
1.19596e-12
2.22892e-12
2.74271e-12
1.52592e-12
1.94376e-12
1.74217e-12
3.42656e-12
1.66956e-12
7.88425e-13
1.73117e-13
1.42112e-14
4.10069e-13
-3.53884e-13
-5.5995e-13
3.33605e-13
1.06205e-12
1.08499e-12
4.75931e-13
2.41584e-13
-1.00055e-12
-2.49527e-13
-5.5861e-13
-2.18858e-13
1.48716e-12
2.16916e-12
1.5985e-12
1.64262e-12
1.84332e-12
1.79093e-12
1.52259e-12
1.35192e-12
1.77397e-12
2.20212e-12
1.6759e-12
2.16268e-12
1.45591e-12
7.62554e-13
5.8144e-13
-6.34004e-14
-4.71732e-13
9.53923e-13
5.88083e-13
1.04549e-12
7.81419e-13
1.19604e-12
1.01911e-12
1.08436e-12
1.55768e-12
1.09046e-12
1.947e-12
9.14157e-13
1.16034e-12
2.47139e-12
2.60239e-12
2.83524e-12
2.83589e-12
3.42294e-12
3.71004e-12
2.76193e-12
3.65098e-12
3.12259e-12
3.56477e-12
3.54417e-12
1.9711e-12
1.45436e-12
8.66862e-13
4.28375e-13
6.10937e-13
3.59608e-13
1.145e-12
8.80842e-13
2.48822e-12
2.0392e-12
9.8406e-13
-4.68837e-13
-2.38931e-13
-1.45896e-12
-1.04267e-12
-1.27268e-12
-1.30151e-12
-1.84742e-13
1.88398e-12
2.1566e-12
3.18806e-12
4.00195e-12
2.88675e-12
2.1133e-12
1.47069e-12
1.79229e-12
2.79078e-12
4.37736e-12
5.48114e-12
4.45468e-12
4.6978e-12
4.10964e-12
3.31591e-12
2.94122e-12
2.7314e-12
2.6117e-12
2.47824e-12
2.24469e-12
1.16503e-12
-2.84209e-14
-1.27966e-12
-6.2322e-13
-5.54822e-13
-1.96333e-13
-4.03262e-13
-1.30068e-12
-1.484e-12
-2.07663e-12
-9.79411e-13
-4.29347e-13
-1.69818e-13
2.41584e-13
9.83815e-13
4.89388e-13
2.71988e-13
-8.56113e-13
-1.44302e-12
-2.79936e-13
-3.85562e-13
-4.96668e-13
-6.17011e-13
-1.42118e-12
-1.38343e-12
-1.80832e-12
-6.35936e-13
-4.82876e-13
9.94752e-14
-1.07945e-12
-5.44256e-13
-1.20872e-12
-4.55856e-13
-2.21899e-12
-9.78873e-13
-1.12541e-12
-4.64606e-13
-2.21323e-13
6.64465e-13
9.35385e-13
4.36923e-13
2.25106e-12
1.72432e-12
1.43177e-12
1.80404e-12
1.35538e-12
1.97639e-12
2.23083e-12
2.94203e-12
1.64805e-12
3.00361e-13
4.4868e-13
1.13686e-13
1.08451e-12
1.66738e-12
5.9476e-13
1.38566e-12
1.7718e-12
4.52839e-13
6.49879e-13
4.81067e-14
1.13422e-12
2.42208e-12
1.74248e-12
1.5732e-12
1.23859e-12
8.11872e-13
3.69482e-13
2.61018e-13
8.00222e-13
3.79264e-13
5.82554e-16
-1.5632e-13
6.6778e-13
4.89214e-13
3.05942e-13
1.67917e-12
2.77429e-12
3.38194e-12
2.17314e-12
1.41444e-12
5.16627e-13
2.8423e-14
-5.25599e-14
-1.71288e-13
-4.26326e-14
9.93278e-13
1.17326e-12
2.64885e-15
-5.68924e-13
-8.44419e-13
-6.79932e-13
-6.8832e-13
-1.25423e-12
-8.2829e-13
-9.85417e-13
-2.46706e-13
1.98833e-13
7.49151e-13
9.53776e-14
3.83693e-13
6.97727e-13
2.59622e-13
6.1519e-13
2.52331e-13
-6.57233e-13
-6.90793e-13
-1.25324e-12
-1.75778e-12
-1.08438e-12
-8.28701e-13
-1.26643e-13
-1.38923e-13
9.05397e-13
6.54192e-13
1.16383e-12
2.60138e-12
1.89992e-12
7.27084e-13
4.19381e-13
-4.9844e-15
-8.52659e-14
-8.73774e-13
-2.03309e-12
-3.37537e-12
-3.55659e-12
-4.12614e-12
-4.17958e-12
-3.80674e-12
-3.95594e-12
-2.76862e-12
-3.70811e-12
-2.60075e-12
-3.36405e-12
-2.71925e-12
-2.28259e-12
-1.90617e-12
-7.40616e-13
-1.4264e-12
-6.8192e-13
-3.60362e-19
1.05472e-12
1.23462e-12
2.27374e-13
1.31277e-12
6.60522e-13
1.64217e-12
1.77062e-12
2.0346e-12
1.61784e-12
1.72507e-12
1.98997e-12
2.95692e-12
1.7054e-12
2.52134e-12
3.04415e-12
8.82976e-13
2.44609e-12
1.93568e-12
1.34098e-12
1.22985e-12
1.43837e-12
9.27977e-13
-2.27373e-13
-9.21812e-13
-1.6269e-12
-9.8505e-13
-1.20641e-12
-8.60211e-13
-1.42109e-14
1.06581e-12
3.35254e-12
4.14776e-12
7.14294e-12
8.39013e-12
1.15151e-11
1.48347e-11
1.99907e-11
2.55217e-11
3.60098e-11
4.89769e-11
7.14008e-11
1.07589e-10
1.61055e-10
2.47198e-10
3.7789e-10
5.79325e-10
8.8786e-10
1.35567e-09
2.06693e-09
3.14192e-09
4.75923e-09
7.18772e-09
1.08194e-08
1.62356e-08
2.42796e-08
3.61866e-08
5.37512e-08
7.95738e-08
1.17398e-07
1.72614e-07
2.52927e-07
3.69327e-07
5.37423e-07
7.79299e-07
1.12607e-06
1.6214e-06
2.32633e-06
3.32583e-06
4.73768e-06
6.72452e-06
9.50993e-06
1.34e-05
1.88119e-05
2.63121e-05
3.66659e-05
5.09029e-05
7.04025e-05
9.70039e-05
0.000133149
0.000182062
0.000247988
0.00033648
0.000454773
0.000612248
0.00082101
0.0010966
0.00145886
0.00193304
0.00255102
0.00335293
0.00438899
0.00572168
0.00742832
0.0096041
0.0123655
0.0158543
0.0202418
0.0257345
0.0325786
0.0410669
0.0515449
0.0644179
0.0801579
0.0993112
0.122505
0.150457
0.183978
0.22398
0.271481
0.327611
0.393607
0.47082
0.560707
0.664829
0.784845
0.922497
1.0796
1.25802
1.45967
1.68647
1.94034
2.22317
2.53678
2.88294
3.26329
3.67935
4.13249
4.62392
5.15466
5.72552
6.33712
6.98986
7.68391
8.41926
9.19564
10.0126
10.8695
11.7656
12.6998
13.6709
14.6779
15.7192
16.7933
17.8988
19.034
20.1974
21.3871
22.6015
23.8391
25.098
26.3768
27.6737
28.9874
30.3163
31.6591
33.0143
34.3808
35.7573
37.1427
38.536
39.9362
41.3424
42.7539
44.1698
45.5895
47.0124
48.4379
49.8655
51.2948
52.7254
54.157
55.5892
57.0219
58.4547
59.8875
61.3202
62.7525
64.1845
65.6159
67.0468
68.4772
69.9068
71.3358
72.7641
74.1918
75.6188
77.0451
78.4708
79.8958
81.3203
82.7442
84.1676
85.5905
87.0129
88.4349
89.8566
91.2779
92.6989
94.1197
95.5402
96.9606
98.3809
99.8011
101.221
102.641
104.061
105.482
106.902
108.323
109.743
111.164
112.585
114.007
115.428
116.851
118.273
119.696
121.119
122.543
123.967
125.392
126.818
128.243
129.67
131.097
132.525
133.953
135.382
136.812
138.243
139.674
141.106
142.538
143.972
145.406
146.841
148.277
149.713
151.151
152.589
154.028
155.468
156.909
158.351
159.793
161.237
162.681
164.127
165.573
167.021
168.469
169.919
171.369
172.821
174.274
175.727
177.182
178.638
180.095
181.554
183.013
184.474
185.936
187.4
188.865
190.331
191.798
193.267
194.737
196.209
197.682
199.157
200.633
202.111
203.591
205.072
206.555
208.039
209.525
211.013
212.503
213.995
215.488
216.983
218.48
219.979
221.48
222.983
224.488
225.995
227.504
229.015
230.528
232.043
233.56
235.08
236.602
238.126
239.652
241.181
242.712
244.245
245.78
247.319
248.859
250.402
251.947
253.496
255.046
256.599
258.155
259.714
261.275
262.839
264.406
265.976
267.548
269.124
270.702
272.284
273.868
275.456
277.046
278.64
280.237
281.838
283.441
285.048
286.659
288.273
289.89
291.511
293.135
294.764
296.395
298.031
299.671
301.314
302.961
304.612
306.267
307.927
309.59
311.258
312.93
314.606
316.287
317.972
319.661
321.356
323.054
324.758
326.466
328.18
329.898
331.621
333.349
335.083
336.822
338.566
340.315
342.07
343.831
345.598
347.371
349.149
350.933
352.723
354.52
356.323
358.132
359.948
361.771
363.601
365.438
367.281
369.132
370.991
372.856
374.73
376.611
378.5
380.397
382.302
384.215
386.135
388.063
390.003
391.953
393.912
395.879
397.856
399.843
401.841
403.848
405.867
407.895
409.935
411.986
414.048
416.122
418.209
420.308
422.42
424.544
426.682
428.834
431
433.179
435.374
437.583
439.809
442.05
444.309
446.584
448.878
451.189
453.518
455.865
458.233
460.621
463.03
465.459
467.913
470.388
472.888
475.413
477.964
480.541
483.147
485.781
488.445
491.14
493.869
496.631
499.43
502.264
505.139
508.052
511.009
514.008
517.057
520.152
523.301
526.503
529.764
533.081
536.462
539.903
543.413
546.987
550.632
554.341
558.115
561.944
565.82
569.695
572.796
575.787
578.679
581.464
584.159
586.781
589.359
591.914
594.466
597.026
599.605
602.201
604.817
607.443
610.077
612.709
615.338
617.956
620.564
623.16
625.746
628.322
630.89
633.449
636.002
638.546
641.082
643.605
646.118
648.617
651.103
653.574
656.032
658.475
660.907
663.326
665.736
668.134
670.52
672.892
675.248
677.587
679.907
682.204
684.479
686.728
688.95
691.145
693.314
695.458
697.579
699.676
701.75
703.801
705.831
707.836
709.818
711.773
713.702
715.602
717.467
719.283
721.049
722.767
724.436
726.041
727.566
729.002
730.342
731.585
732.735
733.785
734.697
735.454
736.062
736.527
736.854
737.069
737.151
737.178
737.22
737.158
736.797
735.925
734.509
732.515
729.835
726.35
722.001
716.622
710.09
702.198
692.938
682.335
669.933
655.444
638.704
624.217
618.391
)
;

boundaryField
{
    sideLeft
    {
        type            symmetryPlane;
        value           uniform 0;
    }
    sideRight
    {
        type            calculated;
        value           uniform 620.33;
    }
    topbottom
    {
        type            empty;
        value           nonuniform 0();
    }
    frontback
    {
        type            empty;
        value           nonuniform 0();
    }
}


// ************************************************************************* //
