/*--------------------------------*- C++ -*----------------------------------*\
| =========                 |                                                 |
| \\      /  F ield         | OpenFOAM: The Open Source CFD Toolbox           |
|  \\    /   O peration     | Version:  2.4.0                                 |
|   \\  /    A nd           | Web:      www.OpenFOAM.org                      |
|    \\/     M anipulation  |                                                 |
\*---------------------------------------------------------------------------*/
FoamFile
{
    version     2.0;
    format      ascii;
    class       surfaceScalarField;
    location    "0.14";
    object      phi.water;
}
// * * * * * * * * * * * * * * * * * * * * * * * * * * * * * * * * * * * * * //

dimensions      [0 3 -1 0 0 0 0];

internalField   nonuniform List<scalar> 
999
(
-5.39335e-13
-1.10503e-12
-1.56643e-12
-2.37881e-12
-2.15952e-12
-1.4545e-12
-1.62782e-12
-2.43628e-12
-2.83555e-12
-2.66438e-12
-2.92164e-12
-2.80112e-12
-3.03941e-12
-2.60336e-12
-2.21461e-12
-1.8435e-12
-1.641e-12
-1.53097e-12
-6.97787e-13
-1.26188e-12
-1.07533e-12
-2.49942e-12
-2.29534e-12
-1.99689e-12
-1.69861e-12
-3.6509e-12
-3.97761e-12
-3.81912e-12
-2.6485e-12
-4.30606e-12
-3.61484e-12
-3.43929e-12
-2.11312e-12
-3.34042e-12
-4.44183e-12
-4.14258e-12
-4.46093e-12
-4.9039e-12
-5.29804e-12
-4.58555e-12
-4.90676e-12
-5.72893e-12
-3.59805e-12
-2.99223e-12
-3.04395e-12
-3.08208e-12
-2.7486e-12
-2.26549e-12
-2.86452e-12
-2.4746e-12
-1.33097e-12
-1.50269e-12
-1.64189e-12
-6.18184e-13
-8.91828e-13
4.35478e-13
8.10927e-13
3.11275e-13
1.86844e-12
8.61261e-13
2.04514e-12
3.41155e-12
3.65053e-12
5.08291e-12
5.1305e-12
3.0768e-12
3.00795e-12
2.29635e-12
3.14818e-12
2.92116e-12
2.57676e-12
1.62577e-12
6.57268e-13
8.66389e-13
4.44034e-13
1.70132e-14
1.13686e-13
-3.14693e-13
-2.41585e-13
-7.10541e-14
8.95702e-13
5.63794e-13
2.30769e-13
-3.24896e-13
-8.52646e-14
8.99925e-13
1.03047e-12
-8.28199e-13
-1.29853e-12
-2.18448e-12
-2.68781e-12
-3.12864e-12
-4.62199e-12
-4.16522e-12
-3.49777e-12
-3.97044e-12
-2.86913e-12
-4.11722e-12
-4.34346e-12
-3.65662e-12
-3.57617e-12
-3.84e-12
-2.76259e-12
-3.77367e-12
-3.17812e-12
-3.69426e-12
-3.26208e-12
-3.01283e-12
-2.22462e-12
-2.31781e-12
-1.51598e-12
-5.98482e-13
-5.57703e-13
-2.52244e-13
7.46984e-13
5.22049e-13
1.98952e-13
7.10535e-14
-7.9402e-13
5.63139e-13
9.28338e-13
1.77638e-12
4.13117e-13
7.77638e-13
5.1054e-13
2.54862e-12
3.13442e-12
3.38033e-12
3.81371e-12
2.3128e-12
3.05171e-12
2.89446e-12
2.74129e-12
2.18663e-12
6.68262e-13
1.27899e-13
-8.54283e-13
-3.12639e-13
1.84242e-13
3.79167e-13
1.29917e-12
3.37345e-13
7.97314e-13
2.00484e-12
1.54719e-12
2.05938e-12
3.38191e-12
2.71573e-12
1.92455e-12
2.461e-12
1.58128e-12
2.43304e-12
4.11296e-12
4.06175e-12
5.11718e-12
5.6466e-12
5.90025e-12
5.32086e-12
5.102e-12
5.13906e-12
4.98726e-12
6.65786e-12
5.10002e-12
5.69057e-12
5.97203e-12
5.81307e-12
5.61453e-12
5.09512e-12
4.61073e-12
4.80877e-12
4.32123e-12
4.62393e-12
4.96343e-12
4.83007e-12
5.11457e-12
4.47938e-12
4.57631e-12
3.53672e-12
3.81267e-12
3.30333e-12
2.51867e-12
3.07662e-12
2.38707e-12
2.11586e-12
5.30866e-13
1.54766e-12
7.22836e-13
1.3666e-12
1.27439e-12
5.82645e-13
-5.68434e-13
-1.61305e-12
-6.17321e-13
-1.09155e-12
-1.0221e-12
-8.49004e-13
-1.20677e-12
-4.60899e-13
-8.09287e-14
1.73155e-13
4.26335e-14
1.48017e-12
2.22892e-12
2.28796e-12
1.86699e-12
1.94376e-12
1.96954e-12
3.19918e-12
1.44218e-12
6.74738e-13
2.29961e-13
2.41585e-13
6.94286e-13
-4.10727e-13
-5.03106e-13
3.33605e-13
6.64145e-13
1.14183e-12
5.32775e-13
7.10539e-14
-4.88963e-13
-5.90587e-13
-5.5861e-13
3.49576e-13
1.03242e-12
2.22601e-12
1.71219e-12
1.52894e-12
2.01385e-12
1.67724e-12
1.4089e-12
1.46561e-12
2.05818e-12
1.52e-12
2.13065e-12
2.56059e-12
1.22853e-12
6.48867e-13
4.67753e-13
1.63973e-13
-2.44359e-13
5.56019e-13
4.74396e-13
1.38655e-12
4.97202e-13
1.30973e-12
9.05418e-13
1.08436e-12
1.50083e-12
1.03362e-12
1.5491e-12
1.19837e-12
9.32962e-13
2.98298e-12
2.31817e-12
2.7784e-12
2.7222e-12
3.42294e-12
3.59636e-12
2.93246e-12
3.65098e-12
3.0089e-12
3.62161e-12
3.82839e-12
1.80057e-12
1.5112e-12
8.66862e-13
5.42062e-13
6.10937e-13
5.86981e-13
8.13326e-15
1.73349e-12
2.31769e-12
1.64129e-12
1.26828e-12
-1.8462e-13
-3.52618e-13
-1.34527e-12
-8.72136e-13
-1.44321e-12
-1.18782e-12
-4.68959e-13
1.48608e-12
2.5545e-12
3.41544e-12
3.94511e-12
3.00044e-12
2.17014e-12
1.52753e-12
1.50807e-12
2.84762e-12
4.49104e-12
5.31061e-12
4.45468e-12
4.6978e-12
3.93911e-12
3.42959e-12
2.94122e-12
2.7314e-12
3.0096e-12
2.02349e-12
2.64259e-12
1.27872e-12
-2.55795e-13
-1.33651e-12
-6.2322e-13
-4.41135e-13
-4.23707e-13
-4.60105e-13
-1.41437e-12
-1.19978e-12
-2.01979e-12
-1.20678e-12
-5.43034e-13
-2.26662e-13
2.41584e-13
9.83815e-13
7.73605e-13
1.58301e-13
-6.2874e-13
-1.21564e-12
-6.20997e-13
-2.71875e-13
-5.53512e-13
-2.7595e-13
-2.21699e-12
-9.85527e-13
-1.46726e-12
-6.9278e-13
-5.96563e-13
-3.55272e-13
-9.08916e-13
-7.14786e-13
-6.97125e-13
-1.19482e-12
-1.53687e-12
-1.26309e-12
-8.41192e-13
-5.78293e-13
-1.07636e-13
4.37091e-13
8.21698e-13
9.48514e-13
2.13737e-12
1.44011e-12
8.63338e-13
2.48616e-12
1.81013e-12
1.35111e-12
2.4582e-12
2.94203e-12
1.81858e-12
2.43518e-13
4.4868e-13
1.13686e-13
9.70825e-13
1.49685e-12
9.35821e-13
1.21513e-12
1.71495e-12
7.939e-13
1.95131e-13
4.46011e-13
7.93156e-13
2.36524e-12
1.51511e-12
1.40267e-12
1.57966e-12
1.38031e-12
-1.42108e-13
3.36445e-14
7.43379e-13
6.06638e-13
-1.69948e-13
1.84741e-13
6.6778e-13
4.32371e-13
3.62785e-13
1.90655e-12
2.2627e-12
3.66616e-12
2.00261e-12
1.41444e-12
5.73471e-13
-2.84204e-14
-3.36777e-13
3.40303e-13
7.10542e-14
9.93278e-13
1.00273e-12
1.73179e-13
-9.66828e-13
-7.30732e-13
-9.64149e-13
-7.45163e-13
-7.42637e-13
-1.33988e-12
-8.14887e-13
-3.0355e-13
2.83026e-14
1.48812e-12
3.85342e-14
4.40537e-13
2.99824e-13
3.16465e-13
6.72033e-13
1.38644e-13
-4.86703e-13
-9.7501e-13
-1.5943e-12
-1.41672e-12
-1.36859e-12
-7.71858e-13
-6.97994e-14
3.15824e-13
7.91711e-13
7.67879e-13
9.36457e-13
2.48769e-12
1.89992e-12
1.12499e-12
4.76224e-13
-6.18278e-14
-3.1264e-13
-6.46401e-13
-2.431e-12
-3.14799e-12
-3.61344e-12
-4.0693e-12
-4.35011e-12
-3.69305e-12
-3.89909e-12
-2.99599e-12
-3.76495e-12
-2.60075e-12
-3.47773e-12
-2.03713e-12
-2.56681e-12
-2.01986e-12
-7.9746e-13
-1.25587e-12
-8.52451e-13
2.27373e-13
1.1684e-12
8.93563e-13
5.68435e-13
1.19908e-12
1.11527e-12
9.03208e-13
1.77062e-12
2.4325e-12
1.67469e-12
1.04295e-12
2.21734e-12
2.55902e-12
2.38752e-12
2.35081e-12
3.10099e-12
9.3982e-13
2.38925e-12
1.99253e-12
1.34098e-12
1.28669e-12
1.6089e-12
1.04166e-12
-1.13687e-13
-1.0355e-12
-1.74059e-12
-1.15558e-12
-1.43379e-12
-6.32837e-13
9.94759e-14
6.6791e-13
3.46622e-12
4.43197e-12
6.97241e-12
8.2196e-12
1.16856e-11
1.48347e-11
2.00475e-11
2.52375e-11
3.59529e-11
4.87495e-11
7.16282e-11
1.07077e-10
1.60486e-10
2.46346e-10
3.76867e-10
5.77278e-10
8.85302e-10
1.35112e-09
2.06085e-09
3.13249e-09
4.74587e-09
7.16663e-09
1.07884e-08
1.61899e-08
2.4213e-08
3.60885e-08
5.36083e-08
7.93654e-08
1.17098e-07
1.7218e-07
2.52302e-07
3.68432e-07
5.36146e-07
7.77484e-07
1.1235e-06
1.61778e-06
2.32124e-06
3.31869e-06
4.72773e-06
6.71071e-06
9.49082e-06
1.33737e-05
1.87758e-05
2.62627e-05
3.65987e-05
5.08118e-05
7.02796e-05
9.68387e-05
0.000132927
0.000181768
0.000247597
0.000335964
0.000454094
0.00061136
0.000819852
0.0010951
0.00145692
0.00193054
0.00254783
0.00334887
0.00438385
0.00571519
0.00742018
0.00959393
0.0123529
0.0158386
0.0202227
0.025711
0.03255
0.0410323
0.0515033
0.0643681
0.0800986
0.0992409
0.122423
0.15036
0.183865
0.223849
0.271331
0.327439
0.393412
0.470599
0.560459
0.664554
0.78454
0.922161
1.07923
1.25762
1.45924
1.68601
1.93985
2.22264
2.53623
2.88236
3.26269
3.67873
4.13186
4.62328
5.15401
5.72487
6.33647
6.98922
7.68328
8.41864
9.19504
10.012
10.869
11.765
12.6993
13.6705
14.6774
15.7188
16.793
17.8985
19.0338
20.1971
21.3869
22.6014
23.8389
25.0979
26.3767
27.6737
28.9874
30.3163
31.6591
33.0144
34.3808
35.7574
37.1428
38.5361
39.9363
41.3426
42.7541
44.17
45.5897
47.0126
48.4381
49.8657
51.295
52.7256
54.1572
55.5894
57.0221
58.4549
59.8877
61.3204
62.7527
64.1847
65.6161
67.047
68.4773
69.907
71.336
72.7643
74.192
75.619
77.0453
78.4709
79.896
81.3205
82.7444
84.1677
85.5906
87.0131
88.4351
89.8567
91.278
92.6991
94.1198
95.5404
96.9608
98.381
99.8012
101.221
102.641
104.062
105.482
106.902
108.323
109.743
111.164
112.585
114.007
115.429
116.851
118.273
119.696
121.119
122.543
123.968
125.392
126.818
128.244
129.67
131.097
132.525
133.953
135.382
136.812
138.243
139.674
141.106
142.538
143.972
145.406
146.841
148.277
149.713
151.151
152.589
154.028
155.468
156.909
158.351
159.793
161.237
162.682
164.127
165.574
167.021
168.469
169.919
171.369
172.821
174.274
175.727
177.182
178.638
180.095
181.554
183.013
184.474
185.936
187.4
188.865
190.331
191.798
193.267
194.737
196.209
197.682
199.157
200.633
202.111
203.591
205.072
206.555
208.039
209.525
211.013
212.503
213.995
215.488
216.983
218.48
219.979
221.48
222.983
224.488
225.995
227.504
229.015
230.528
232.043
233.56
235.08
236.602
238.126
239.652
241.181
242.712
244.245
245.781
247.319
248.859
250.402
251.948
253.496
255.046
256.599
258.155
259.714
261.275
262.839
264.406
265.976
267.548
269.124
270.702
272.284
273.868
275.456
277.046
278.64
280.237
281.838
283.441
285.048
286.659
288.273
289.89
291.511
293.135
294.764
296.395
298.031
299.671
301.314
302.961
304.612
306.267
307.927
309.59
311.258
312.93
314.606
316.287
317.972
319.661
321.356
323.055
324.758
326.466
328.18
329.898
331.621
333.349
335.083
336.822
338.566
340.316
342.07
343.831
345.598
347.371
349.149
350.933
352.723
354.52
356.323
358.132
359.949
361.771
363.601
365.437
367.282
369.132
370.991
372.856
374.73
376.611
378.5
380.397
382.302
384.215
386.135
388.064
390.003
391.953
393.912
395.879
397.856
399.843
401.841
403.849
405.867
407.895
409.935
411.986
414.048
416.122
418.209
420.308
422.42
424.544
426.682
428.834
431
433.179
435.374
437.584
439.809
442.05
444.309
446.584
448.878
451.189
453.518
455.865
458.233
460.621
463.03
465.46
467.912
470.388
472.888
475.413
477.964
480.541
483.147
485.781
488.445
491.141
493.869
496.631
499.43
502.264
505.138
508.052
511.009
514.008
517.057
520.152
523.301
526.503
529.764
533.081
536.462
539.903
543.413
546.987
550.632
554.341
558.115
561.944
565.82
569.695
572.796
575.787
578.679
581.464
584.159
586.781
589.359
591.914
594.466
597.026
599.605
602.201
604.817
607.443
610.077
612.709
615.338
617.956
620.564
623.16
625.746
628.322
630.89
633.449
636.002
638.546
641.082
643.605
646.118
648.617
651.103
653.574
656.032
658.475
660.907
663.326
665.736
668.134
670.52
672.891
675.248
677.587
679.907
682.204
684.479
686.727
688.95
691.144
693.314
695.458
697.579
699.676
701.75
703.801
705.831
707.836
709.818
711.772
713.702
715.602
717.466
719.283
721.049
722.767
724.435
726.041
727.566
729.002
730.342
731.585
732.735
733.784
734.697
735.454
736.062
736.526
736.857
737.069
737.139
737.161
737.198
737.139
736.779
735.917
734.51
732.513
729.836
726.349
721.999
716.621
710.088
702.197
692.939
682.337
669.933
655.444
638.696
624.221
618.403
)
;

boundaryField
{
    sideLeft
    {
        type            symmetryPlane;
        value           uniform 0;
    }
    sideRight
    {
        type            calculated;
        value           uniform 2499.7;
    }
    topbottom
    {
        type            empty;
        value           nonuniform 0();
    }
    frontback
    {
        type            empty;
        value           nonuniform 0();
    }
}


// ************************************************************************* //
