/*--------------------------------*- C++ -*----------------------------------*\
| =========                 |                                                 |
| \\      /  F ield         | OpenFOAM: The Open Source CFD Toolbox           |
|  \\    /   O peration     | Version:  2.4.0                                 |
|   \\  /    A nd           | Web:      www.OpenFOAM.org                      |
|    \\/     M anipulation  |                                                 |
\*---------------------------------------------------------------------------*/
FoamFile
{
    version     2.0;
    format      ascii;
    class       volScalarField;
    location    "0.14";
    object      pMean;
}
// * * * * * * * * * * * * * * * * * * * * * * * * * * * * * * * * * * * * * //

dimensions      [1 -1 -2 0 0 0 0];

internalField   nonuniform List<scalar> 
1000
(
5e+06
5e+06
5e+06
5e+06
5e+06
5e+06
5e+06
5e+06
5e+06
5e+06
5e+06
5e+06
5e+06
5e+06
5e+06
5e+06
5e+06
5e+06
5e+06
5e+06
5e+06
5e+06
5e+06
5e+06
5e+06
5e+06
5e+06
5e+06
5e+06
5e+06
5e+06
5e+06
5e+06
5e+06
5e+06
5e+06
5e+06
5e+06
5e+06
5e+06
5e+06
5e+06
5e+06
5e+06
5e+06
5e+06
5e+06
5e+06
5e+06
5e+06
5e+06
5e+06
5e+06
5e+06
5e+06
5e+06
5e+06
5e+06
5e+06
5e+06
5e+06
5e+06
5e+06
5e+06
5e+06
5e+06
5e+06
5e+06
5e+06
5e+06
5e+06
5e+06
5e+06
5e+06
5e+06
5e+06
5e+06
5e+06
5e+06
5e+06
5e+06
5e+06
5e+06
5e+06
5e+06
5e+06
5e+06
5e+06
5e+06
5e+06
5e+06
5e+06
5e+06
5e+06
5e+06
5e+06
5e+06
5e+06
5e+06
5e+06
5e+06
5e+06
5e+06
5e+06
5e+06
5e+06
5e+06
5e+06
5e+06
5e+06
5e+06
5e+06
5e+06
5e+06
5e+06
5e+06
5e+06
5e+06
5e+06
5e+06
5e+06
5e+06
5e+06
5e+06
5e+06
5e+06
5e+06
5e+06
5e+06
5e+06
5e+06
5e+06
5e+06
5e+06
5e+06
5e+06
5e+06
5e+06
5e+06
5e+06
5e+06
5e+06
5e+06
5e+06
5e+06
5e+06
5e+06
5e+06
5e+06
5e+06
5e+06
5e+06
5e+06
5e+06
5e+06
5e+06
5e+06
5e+06
5e+06
5e+06
5e+06
5e+06
5e+06
5e+06
5e+06
5e+06
5e+06
5e+06
5e+06
5e+06
5e+06
5e+06
5e+06
5e+06
5e+06
5e+06
5e+06
5e+06
5e+06
5e+06
5e+06
5e+06
5e+06
5e+06
5e+06
5e+06
5e+06
5e+06
5e+06
5e+06
5e+06
5e+06
5e+06
5e+06
5e+06
5e+06
5e+06
5e+06
5e+06
5e+06
5e+06
5e+06
5e+06
5e+06
5e+06
5e+06
5e+06
5e+06
5e+06
5e+06
5e+06
5e+06
5e+06
5e+06
5e+06
5e+06
5e+06
5e+06
5e+06
5e+06
5e+06
5e+06
5e+06
5e+06
5e+06
5e+06
5e+06
5e+06
5e+06
5e+06
5e+06
5e+06
5e+06
5e+06
5e+06
5e+06
5e+06
5e+06
5e+06
5e+06
5e+06
5e+06
5e+06
5e+06
5e+06
5e+06
5e+06
5e+06
5e+06
5e+06
5e+06
5e+06
5e+06
5e+06
5e+06
5e+06
5e+06
5e+06
5e+06
5e+06
5e+06
5e+06
5e+06
5e+06
5e+06
5e+06
5e+06
5e+06
5e+06
5e+06
5e+06
5e+06
5e+06
5e+06
5e+06
5e+06
5e+06
5e+06
5e+06
5e+06
5e+06
5e+06
5e+06
5e+06
5e+06
5e+06
5e+06
5e+06
5e+06
5e+06
5e+06
5e+06
5e+06
5e+06
5e+06
5e+06
5e+06
5e+06
5e+06
5e+06
5e+06
5e+06
5e+06
5e+06
5e+06
5e+06
5e+06
5e+06
5e+06
5e+06
5e+06
5e+06
5e+06
5e+06
5e+06
5e+06
5e+06
5e+06
5e+06
5e+06
5e+06
5e+06
5e+06
5e+06
5e+06
5e+06
5e+06
5e+06
5e+06
5e+06
5e+06
5e+06
5e+06
5e+06
5e+06
5e+06
5e+06
5e+06
5e+06
5e+06
5e+06
5e+06
5e+06
5e+06
5e+06
5e+06
5e+06
5e+06
5e+06
5e+06
5e+06
5e+06
5e+06
5e+06
5e+06
5e+06
5e+06
5e+06
5e+06
5e+06
5e+06
5e+06
5e+06
5e+06
5e+06
5e+06
5e+06
5e+06
5e+06
5e+06
5e+06
5e+06
5e+06
5e+06
5e+06
5e+06
5e+06
5e+06
5e+06
5e+06
5e+06
5e+06
5e+06
5e+06
5e+06
5e+06
5e+06
5e+06
5e+06
5e+06
5e+06
5e+06
5e+06
5e+06
5e+06
5e+06
5e+06
5e+06
5e+06
5e+06
5e+06
5e+06
5e+06
5e+06
5e+06
5e+06
5e+06
5e+06
5e+06
5e+06
5e+06
5e+06
5e+06
5e+06
5e+06
5e+06
5e+06
5e+06
5e+06
5e+06
5e+06
5e+06
5e+06
5e+06
5e+06
5e+06
5e+06
5e+06
5e+06
5e+06
5e+06
5e+06
5e+06
5e+06
5e+06
5e+06
5e+06
5e+06
5e+06
5e+06
5e+06
5e+06
5e+06
5e+06
5e+06
5e+06
5e+06
5e+06
5e+06
5e+06
5e+06
5e+06
5e+06
5e+06
5e+06
5e+06
5e+06
5e+06
5e+06
5e+06
5e+06
5e+06
5e+06
5e+06
5e+06
5e+06
5e+06
5e+06
5e+06
5e+06
5e+06
5e+06
5e+06
5e+06
5e+06
5e+06
5e+06
5e+06
5e+06
5e+06
5e+06
5e+06
5e+06
5e+06
5e+06
5e+06
5e+06
5e+06
5e+06
5e+06
5e+06
5e+06
5e+06
5e+06
5e+06
5e+06
5e+06
5e+06
5e+06
5e+06
5e+06
5e+06
5e+06
5e+06
5e+06
5e+06
5e+06
5e+06
5e+06
5e+06
5e+06
5e+06
5e+06
5e+06
5e+06
5e+06
5e+06
5e+06
5e+06
5e+06
5e+06
5e+06
5e+06
5e+06
5e+06
5e+06
5e+06
5e+06
5e+06
5e+06
5e+06
5e+06
5e+06
5e+06
5e+06
5e+06
5e+06
5e+06
5e+06
5e+06
5e+06
5e+06
5e+06
5e+06
5e+06
5e+06
4.99999e+06
4.99999e+06
4.99999e+06
4.99999e+06
4.99999e+06
4.99998e+06
4.99998e+06
4.99998e+06
4.99997e+06
4.99997e+06
4.99996e+06
4.99995e+06
4.99994e+06
4.99993e+06
4.99991e+06
4.9999e+06
4.99988e+06
4.99985e+06
4.99983e+06
4.9998e+06
4.99977e+06
4.99973e+06
4.99969e+06
4.99964e+06
4.99958e+06
4.99952e+06
4.99945e+06
4.99938e+06
4.9993e+06
4.9992e+06
4.9991e+06
4.99899e+06
4.99887e+06
4.99874e+06
4.9986e+06
4.99844e+06
4.99828e+06
4.9981e+06
4.9979e+06
4.9977e+06
4.99747e+06
4.99724e+06
4.99699e+06
4.99672e+06
4.99644e+06
4.99614e+06
4.99583e+06
4.9955e+06
4.99515e+06
4.99479e+06
4.99441e+06
4.99401e+06
4.99359e+06
4.99316e+06
4.99271e+06
4.99224e+06
4.99175e+06
4.99124e+06
4.99071e+06
4.99017e+06
4.98961e+06
4.98903e+06
4.98843e+06
4.98781e+06
4.98717e+06
4.98651e+06
4.98584e+06
4.98514e+06
4.98443e+06
4.9837e+06
4.98295e+06
4.98218e+06
4.98139e+06
4.98058e+06
4.97976e+06
4.97891e+06
4.97805e+06
4.97716e+06
4.97626e+06
4.97534e+06
4.9744e+06
4.97344e+06
4.97247e+06
4.97147e+06
4.97046e+06
4.96942e+06
4.96837e+06
4.9673e+06
4.96621e+06
4.9651e+06
4.96397e+06
4.96282e+06
4.96166e+06
4.96047e+06
4.95927e+06
4.95805e+06
4.95681e+06
4.95555e+06
4.95427e+06
4.95297e+06
4.95166e+06
4.95032e+06
4.94897e+06
4.9476e+06
4.94621e+06
4.9448e+06
4.94337e+06
4.94192e+06
4.94045e+06
4.93897e+06
4.93746e+06
4.93594e+06
4.9344e+06
4.93284e+06
4.93126e+06
4.92966e+06
4.92804e+06
4.9264e+06
4.92475e+06
4.92307e+06
4.92138e+06
4.91967e+06
4.91793e+06
4.91618e+06
4.91441e+06
4.91263e+06
4.91082e+06
4.90899e+06
4.90714e+06
4.90528e+06
4.9034e+06
4.90149e+06
4.89957e+06
4.89763e+06
4.89567e+06
4.89369e+06
4.89169e+06
4.88967e+06
4.88763e+06
4.88557e+06
4.8835e+06
4.8814e+06
4.87929e+06
4.87715e+06
4.875e+06
4.87282e+06
4.87063e+06
4.86842e+06
4.86619e+06
4.86394e+06
4.86167e+06
4.85938e+06
4.85707e+06
4.85474e+06
4.85239e+06
4.85002e+06
4.84763e+06
4.84522e+06
4.84279e+06
4.84035e+06
4.83788e+06
4.83539e+06
4.83289e+06
4.83036e+06
4.82781e+06
4.82525e+06
4.82266e+06
4.82005e+06
4.81743e+06
4.81478e+06
4.81211e+06
4.80943e+06
4.80672e+06
4.80399e+06
4.80125e+06
4.79848e+06
4.79569e+06
4.79289e+06
4.79006e+06
4.78721e+06
4.78434e+06
4.78145e+06
4.77854e+06
4.77561e+06
4.77266e+06
4.76969e+06
4.7667e+06
4.76368e+06
4.76065e+06
4.7576e+06
4.75452e+06
4.75142e+06
4.74831e+06
4.74517e+06
4.74201e+06
4.73883e+06
4.73563e+06
4.73241e+06
4.72916e+06
4.7259e+06
4.72261e+06
4.71931e+06
4.71598e+06
4.71263e+06
4.70926e+06
4.70587e+06
4.70245e+06
4.69901e+06
4.69556e+06
4.69208e+06
4.68858e+06
4.68505e+06
4.68151e+06
4.67794e+06
4.67435e+06
4.67074e+06
4.66711e+06
4.66345e+06
4.65977e+06
4.65607e+06
4.65235e+06
4.64861e+06
4.64484e+06
4.64105e+06
4.63723e+06
4.6334e+06
4.62954e+06
4.62566e+06
4.62175e+06
4.61783e+06
4.61388e+06
4.6099e+06
4.6059e+06
4.60188e+06
4.59784e+06
4.59377e+06
4.58968e+06
4.58557e+06
4.58143e+06
4.57727e+06
4.57308e+06
4.56887e+06
4.56464e+06
4.56038e+06
4.55609e+06
4.55179e+06
4.54745e+06
4.5431e+06
4.53872e+06
4.53431e+06
4.52988e+06
4.52542e+06
4.52094e+06
4.51644e+06
4.51191e+06
4.50735e+06
4.50277e+06
4.49816e+06
4.49352e+06
4.48886e+06
4.48418e+06
4.47947e+06
4.47473e+06
4.46996e+06
4.46517e+06
4.46035e+06
4.45551e+06
4.45064e+06
4.44574e+06
4.44081e+06
4.43586e+06
4.43088e+06
4.42587e+06
4.42083e+06
4.41577e+06
4.41067e+06
4.40555e+06
4.4004e+06
4.39523e+06
4.39002e+06
4.38478e+06
4.37952e+06
4.37422e+06
4.3689e+06
4.36354e+06
4.35816e+06
4.35275e+06
4.3473e+06
4.34183e+06
4.33632e+06
4.33078e+06
4.32522e+06
4.31962e+06
4.31398e+06
4.30832e+06
4.30263e+06
4.2969e+06
4.29114e+06
4.28534e+06
4.27951e+06
4.27365e+06
4.26776e+06
4.26183e+06
4.25587e+06
4.24987e+06
4.24383e+06
4.23777e+06
4.23166e+06
4.22552e+06
4.21934e+06
4.21313e+06
4.20688e+06
4.20059e+06
4.19426e+06
4.18789e+06
4.18149e+06
4.17504e+06
4.16856e+06
4.16203e+06
4.15547e+06
4.14886e+06
4.14221e+06
4.13552e+06
4.12879e+06
4.12201e+06
4.11518e+06
4.10832e+06
4.1014e+06
4.09444e+06
4.08743e+06
4.08038e+06
4.07327e+06
4.06612e+06
4.05892e+06
4.05166e+06
4.04435e+06
4.03699e+06
4.02957e+06
4.0221e+06
4.01457e+06
4.00699e+06
3.99934e+06
3.99163e+06
3.98387e+06
3.97603e+06
3.96814e+06
3.96018e+06
3.95216e+06
3.94408e+06
3.93593e+06
3.92773e+06
3.91947e+06
3.91117e+06
3.90284e+06
3.89449e+06
3.88617e+06
3.87791e+06
3.86971e+06
3.86155e+06
3.8534e+06
3.84524e+06
3.83705e+06
3.82882e+06
3.82053e+06
3.81219e+06
3.8038e+06
3.79536e+06
3.78688e+06
3.77836e+06
3.7698e+06
3.7612e+06
3.75258e+06
3.74392e+06
3.73522e+06
3.7265e+06
3.71774e+06
3.70895e+06
3.70012e+06
3.69126e+06
3.68236e+06
3.67343e+06
3.66446e+06
3.65547e+06
3.64644e+06
3.63738e+06
3.62829e+06
3.61916e+06
3.61001e+06
3.60083e+06
3.59162e+06
3.58238e+06
3.57311e+06
3.56381e+06
3.55448e+06
3.54513e+06
3.53575e+06
3.52634e+06
3.51691e+06
3.50745e+06
3.49797e+06
3.48847e+06
3.47894e+06
3.46939e+06
3.45982e+06
3.45024e+06
3.44063e+06
3.43101e+06
3.42137e+06
3.41171e+06
3.40204e+06
3.39235e+06
3.38266e+06
3.37295e+06
3.36323e+06
3.3535e+06
3.34377e+06
3.33403e+06
3.32429e+06
3.31455e+06
3.30482e+06
3.2951e+06
3.28539e+06
3.2757e+06
3.26603e+06
3.25639e+06
3.24679e+06
3.23724e+06
3.22773e+06
3.21828e+06
3.2089e+06
3.19959e+06
3.19035e+06
3.18118e+06
3.17206e+06
3.163e+06
3.15404e+06
3.14526e+06
3.1367e+06
3.12837e+06
3.1203e+06
3.1125e+06
3.105e+06
3.09782e+06
3.09099e+06
3.08452e+06
3.07844e+06
3.07274e+06
3.06742e+06
3.06244e+06
3.05774e+06
3.05322e+06
3.04868e+06
3.04373e+06
3.03687e+06
)
;

boundaryField
{
    sideLeft
    {
        type            symmetryPlane;
    }
    sideRight
    {
        type            calculated;
        value           uniform 3.03062e+06;
    }
    topbottom
    {
        type            empty;
    }
    frontback
    {
        type            empty;
    }
}


// ************************************************************************* //
