/*--------------------------------*- C++ -*----------------------------------*\
| =========                 |                                                 |
| \\      /  F ield         | OpenFOAM: The Open Source CFD Toolbox           |
|  \\    /   O peration     | Version:  2.4.0                                 |
|   \\  /    A nd           | Web:      www.OpenFOAM.org                      |
|    \\/     M anipulation  |                                                 |
\*---------------------------------------------------------------------------*/
FoamFile
{
    version     2.0;
    format      ascii;
    class       volScalarField;
    location    "0.14";
    object      T.air;
}
// * * * * * * * * * * * * * * * * * * * * * * * * * * * * * * * * * * * * * //

dimensions      [0 0 0 1 0 0 0];

internalField   nonuniform List<scalar> 
1000
(
300
300
300
300
300
300
300
300
300
300
300
300
300
300
300
300
300
300
300
300
300
300
300
300
300
300
300
300
300
300
300
300
300
300
300
300
300
300
300
300
300
300
300
300
300
300
300
300
300
300
300
300
300
300
300
300
300
300
300
300
300
300
300
300
300
300
300
300
300
300
300
300
300
300
300
300
300
300
300
300
300
300
300
300
300
300
300
300
300
300
300
300
300
300
300
300
300
300
300
300
300
300
300
300
300
300
300
300
300
300
300
300
300
300
300
300
300
300
300
300
300
300
300
300
300
300
300
300
300
300
300
300
300
300
300
300
300
300
300
300
300
300
300
300
300
300
300
300
300
300
300
300
300
300
300
300
300
300
300
300
300
300
300
300
300
300
300
300
300
300
300
300
300
300
300
300
300
300
300
300
300
300
300
300
300
300
300
300
300
300
300
300
300
300
300
300
300
300
300
300
300
300
300
300
300
300
300
300
300
300
300
300
300
300
300
300
300
300
300
300
300
300
300
300
300
300
300
300
300
300
300
300
300
300
300
300
300
300
300
300
300
300
300
300
300
300
300
300
300
300
300
300
300
300
300
300
300
300
300
300
300
300
300
300
300
300
300
300
300
300
300
300
300
300
300
300
300
300
300
300
300
300
300
300
300
300
300
300
300
300
300
300
300
300
300
300
300
300
300
300
300
300
300
300
300
300
300
300
300
300
300
300
300
300
300
300
300
300
300
300
300
300
300
300
300
300
300
300
300
300
300
300
300
300
300
300
300
300
300
300
300
300
300
300
300
300
300
300
300
300
300
300
300
300
300
300
300
300
300
300
300
300
300
300
300
300
300
300
300
300
300
300
300
300
300
300
300
300
300
300
300
300
300
300
300
300
300
300
300
300
300
300
300
300
300
300
300
300
300
300
300
300
300
300
300
300
300
300
300
300
300
300
300
300
300
300
300
300
300
300
300
300
300
300
300
300
300
300
300
300
300
300
300
300
300
300
300
300
300
300
300
300
300
300
300
300
300
300
300
300
300
300
300
300
300
300
300
300
300
300
300
300
300
300
300
300
300
300
300
300
300
300
300
300
300
300
300
300
300
300
300
300
300
300
300
300
300
300
300
300
300
300
300
300
300
300
300
300
300
300
300
300
300
300
300
300
300
300
300
300
300
300
300
300
300
300
300
300
300
300
300
300
300
300
300
300
300
300
300
300
300
300
300
300
300
300
300
300
300
299.999
299.999
299.999
299.999
299.998
299.998
299.998
299.997
299.996
299.995
299.994
299.993
299.992
299.99
299.988
299.985
299.982
299.979
299.975
299.971
299.966
299.96
299.953
299.946
299.938
299.929
299.918
299.907
299.895
299.881
299.866
299.85
299.832
299.813
299.793
299.771
299.747
299.723
299.696
299.668
299.639
299.609
299.577
299.543
299.508
299.472
299.435
299.396
299.356
299.315
299.273
299.23
299.187
299.142
299.096
299.049
299.002
298.954
298.905
298.856
298.806
298.756
298.705
298.654
298.602
298.55
298.497
298.445
298.392
298.338
298.285
298.231
298.177
298.123
298.068
298.014
297.959
297.904
297.849
297.794
297.739
297.684
297.628
297.573
297.517
297.462
297.406
297.35
297.294
297.238
297.182
297.125
297.069
297.012
296.956
296.899
296.843
296.786
296.729
296.672
296.615
296.557
296.5
296.443
296.385
296.328
296.27
296.212
296.154
296.096
296.038
295.98
295.922
295.864
295.805
295.746
295.688
295.629
295.57
295.511
295.452
295.393
295.333
295.274
295.214
295.155
295.095
295.035
294.975
294.915
294.855
294.794
294.734
294.673
294.612
294.552
294.491
294.43
294.369
294.307
294.246
294.184
294.123
294.061
293.999
293.937
293.875
293.813
293.751
293.688
293.626
293.563
293.501
293.438
293.375
293.312
293.248
293.185
293.122
293.058
292.994
292.93
292.867
292.802
292.738
292.674
292.61
292.545
292.48
292.416
292.351
292.286
292.22
292.155
292.09
292.024
291.958
291.892
291.826
291.76
291.694
291.628
291.561
291.494
291.428
291.361
291.294
291.226
291.159
291.091
291.024
290.956
290.888
290.82
290.751
290.683
290.614
290.546
290.477
290.408
290.338
290.269
290.2
290.13
290.06
289.99
289.92
289.849
289.779
289.708
289.637
289.566
289.495
289.424
289.352
289.28
289.208
289.136
289.064
288.992
288.919
288.846
288.773
288.7
288.626
288.553
288.479
288.405
288.331
288.256
288.182
288.107
288.032
287.957
287.881
287.806
287.73
287.654
287.577
287.501
287.424
287.347
287.27
287.192
287.114
287.036
286.958
286.88
286.801
286.722
286.643
286.563
286.484
286.403
286.325
286.241
286.164
286.078
286.004
285.912
285.844
285.745
285.683
285.576
285.519
285.408
285.352
285.24
285.184
285.071
285.014
284.9
284.843
284.728
284.671
284.555
284.497
284.38
284.321
284.204
284.145
284.026
283.966
283.846
283.786
283.666
283.603
283.485
283.416
283.305
283.226
283.124
283.035
282.936
282.846
282.744
282.657
282.549
282.466
282.352
282.272
282.154
282.075
281.953
281.876
281.75
281.675
281.544
281.47
281.336
281.263
281.125
281.052
280.912
280.838
280.696
280.621
280.476
280.401
280.253
280.177
280.025
279.949
279.795
279.717
279.56
279.48
279.321
279.24
279.077
278.994
278.828
278.743
278.573
278.486
278.313
278.224
278.046
277.955
277.772
277.679
277.491
277.395
277.202
277.103
276.903
276.801
276.595
276.489
276.276
276.166
275.946
275.832
275.603
275.484
275.247
275.125
274.879
274.754
274.502
274.376
274.107
273.609
273.322
272.828
272.544
272.053
271.767
271.272
270.978
270.474
270.167
269.652
269.329
268.802
268.466
267.927
267.579
267.03
266.671
266.112
265.743
265.176
264.795
264.22
263.826
263.244
262.836
262.247
261.828
261.231
260.801
260.196
259.757
259.143
258.694
258.074
257.613
256.987
256.514
255.883
255.399
254.764
254.269
253.63
253.124
252.482
251.967
251.323
250.799
250.152
249.62
248.97
248.43
247.778
247.23
246.576
246.021
245.366
244.804
244.148
243.579
242.926
242.35
241.702
241.119
240.477
239.891
239.257
238.671
238.044
237.462
236.844
236.268
235.663
235.097
234.507
233.951
233.385
232.83
232.284
231.748
231.21
230.686
230.179
229.693
229.24
228.819
228.439
228.103
227.816
227.582
227.424
227.323
227.334
227.394
227.527
227.864
228.034
228.475
229.089
)
;

boundaryField
{
    sideLeft
    {
        type            symmetryPlane;
    }
    sideRight
    {
        type            zeroGradient;
    }
    topbottom
    {
        type            empty;
    }
    frontback
    {
        type            empty;
    }
}


// ************************************************************************* //
