/*--------------------------------*- C++ -*----------------------------------*\
| =========                 |                                                 |
| \\      /  F ield         | OpenFOAM: The Open Source CFD Toolbox           |
|  \\    /   O peration     | Version:  2.4.0                                 |
|   \\  /    A nd           | Web:      www.OpenFOAM.org                      |
|    \\/     M anipulation  |                                                 |
\*---------------------------------------------------------------------------*/
FoamFile
{
    version     2.0;
    format      ascii;
    class       volScalarField;
    location    "0.14";
    object      T.water;
}
// * * * * * * * * * * * * * * * * * * * * * * * * * * * * * * * * * * * * * //

dimensions      [0 0 0 1 0 0 0];

internalField   nonuniform List<scalar> 
1000
(
300
300
300
300
300
300
300
300
300
300
300
300
300
300
300
300
300
300
300
300
300
300
300
300
300
300
300
300
300
300
300
300
300
300
300
300
300
300
300
300
300
300
300
300
300
300
300
300
300
300
300
300
300
300
300
300
300
300
300
300
300
300
300
300
300
300
300
300
300
300
300
300
300
300
300
300
300
300
300
300
300
300
300
300
300
300
300
300
300
300
300
300
300
300
300
300
300
300
300
300
300
300
300
300
300
300
300
300
300
300
300
300
300
300
300
300
300
300
300
300
300
300
300
300
300
300
300
300
300
300
300
300
300
300
300
300
300
300
300
300
300
300
300
300
300
300
300
300
300
300
300
300
300
300
300
300
300
300
300
300
300
300
300
300
300
300
300
300
300
300
300
300
300
300
300
300
300
300
300
300
300
300
300
300
300
300
300
300
300
300
300
300
300
300
300
300
300
300
300
300
300
300
300
300
300
300
300
300
300
300
300
300
300
300
300
300
300
300
300
300
300
300
300
300
300
300
300
300
300
300
300
300
300
300
300
300
300
300
300
300
300
300
300
300
300
300
300
300
300
300
300
300
300
300
300
300
300
300
300
300
300
300
300
300
300
300
300
300
300
300
300
300
300
300
300
300
300
300
300
300
300
300
300
300
300
300
300
300
300
300
300
300
300
300
300
300
300
300
300
300
300
300
300
300
300
300
300
300
300
300
300
300
300
300
300
300
300
300
300
300
300
300
300
300
300
300
300
300
300
300
300
300
300
300
300
300
300
300
300
300
300
300
300
300
300
300
300
300
300
300
300
300
300
300
300
300
300
300
300
300
300
300
300
300
300
300
300
300
300
300
300
300
300
300
300
300
300
300
300
300
300
300
300
300
300
300
300
300
300
300
300
300
300
300
300
300
300
300
300
300
300
300
300
300
300
300
300
300
300
300
300
300
300
300
300
300
300
300
300
300
300
300
300
300
300
300
300
300
300
300
300
300
300
300
300
300
300
300
300
300
300
300
300
300
300
300
300
300
300
300
300
300
300
300
300
300
300
300
300
300
300
300
300
300
300
300
300
300
300
300
300
300
300
300
300
300
300
300
300
300
300
300
300
300
300
300
300
300
300
300
300
300
300
300
300
300
300
300
300
300
300
300
300
300
300
300
300
300
300
300
300
300
300
300
300
300
300
300
300
300
300
300
300
300
300
300
300
300
300
300
300
300
300
300
300
300
300
300
299.999
299.999
299.999
299.999
299.999
299.998
299.998
299.997
299.997
299.996
299.995
299.994
299.993
299.991
299.989
299.987
299.984
299.981
299.978
299.974
299.969
299.964
299.958
299.951
299.944
299.935
299.926
299.915
299.904
299.891
299.877
299.861
299.845
299.827
299.807
299.786
299.764
299.74
299.715
299.688
299.66
299.631
299.6
299.567
299.533
299.498
299.462
299.424
299.385
299.345
299.304
299.262
299.219
299.175
299.13
299.084
299.037
298.99
298.941
298.893
298.843
298.793
298.743
298.692
298.641
298.589
298.537
298.485
298.432
298.379
298.326
298.272
298.218
298.164
298.11
298.056
298.002
297.947
297.892
297.837
297.782
297.727
297.672
297.616
297.561
297.505
297.45
297.394
297.338
297.282
297.226
297.17
297.114
297.058
297.001
296.945
296.888
296.831
296.775
296.718
296.661
296.604
296.547
296.489
296.432
296.375
296.317
296.26
296.202
296.144
296.086
296.028
295.97
295.912
295.853
295.795
295.736
295.678
295.619
295.56
295.501
295.442
295.383
295.324
295.264
295.205
295.145
295.085
295.025
294.965
294.905
294.845
294.785
294.725
294.664
294.603
294.543
294.482
294.421
294.36
294.298
294.237
294.176
294.114
294.052
293.991
293.929
293.867
293.805
293.742
293.68
293.617
293.555
293.492
293.429
293.366
293.303
293.24
293.177
293.113
293.05
292.986
292.922
292.859
292.795
292.73
292.666
292.602
292.537
292.473
292.408
292.343
292.278
292.213
292.148
292.082
292.017
291.951
291.885
291.819
291.753
291.687
291.62
291.554
291.487
291.421
291.354
291.287
291.219
291.152
291.084
291.017
290.949
290.881
290.813
290.745
290.676
290.608
290.539
290.47
290.401
290.332
290.263
290.193
290.123
290.054
289.984
289.913
289.843
289.773
289.702
289.631
289.56
289.489
289.418
289.346
289.274
289.202
289.13
289.058
288.986
288.913
288.84
288.767
288.694
288.621
288.547
288.473
288.399
288.325
288.251
288.176
288.101
288.026
287.951
287.876
287.8
287.724
287.648
287.572
287.495
287.419
287.342
287.264
287.187
287.109
287.031
286.953
286.875
286.796
286.717
286.638
286.558
286.479
286.398
286.32
286.237
286.16
286.073
285.999
285.907
285.839
285.74
285.678
285.571
285.515
285.403
285.348
285.236
285.179
285.066
285.01
284.896
284.839
284.724
284.666
284.551
284.493
284.376
284.317
284.2
284.14
284.022
283.962
283.842
283.782
283.662
283.599
283.481
283.412
283.301
283.222
283.12
283.031
282.933
282.842
282.74
282.653
282.545
282.462
282.349
282.268
282.15
282.071
281.95
281.873
281.746
281.671
281.541
281.467
281.333
281.26
281.122
281.049
280.909
280.835
280.692
280.618
280.473
280.397
280.249
280.173
280.022
279.946
279.792
279.713
279.557
279.477
279.318
279.236
279.074
278.991
278.825
278.74
278.57
278.484
278.31
278.221
278.043
277.952
277.769
277.676
277.488
277.392
277.199
277.1
276.901
276.798
276.593
276.487
276.274
276.164
275.943
275.829
275.6
275.482
275.244
275.122
274.877
274.751
274.5
274.374
274.105
273.607
273.32
272.826
272.542
272.051
271.765
271.27
270.975
270.472
270.165
269.649
269.327
268.799
268.464
267.925
267.577
267.027
266.669
266.11
265.741
265.174
264.792
264.217
263.823
263.241
262.834
262.245
261.826
261.229
260.799
260.194
259.754
259.141
258.691
258.071
257.61
256.984
256.512
255.881
255.396
254.761
254.266
253.627
253.122
252.479
251.965
251.32
250.796
250.149
249.617
248.967
248.427
247.775
247.227
246.573
246.017
245.363
244.8
244.145
243.575
242.922
242.346
241.698
241.115
240.473
239.886
239.252
238.666
238.04
237.458
236.84
236.263
235.658
235.092
234.502
233.946
233.378
232.825
232.281
231.744
231.205
230.679
230.171
229.686
229.232
228.811
228.43
228.093
227.806
227.571
227.413
227.311
227.322
227.383
227.521
227.853
228.021
228.463
229.083
)
;

boundaryField
{
    sideLeft
    {
        type            symmetryPlane;
    }
    sideRight
    {
        type            zeroGradient;
    }
    topbottom
    {
        type            empty;
    }
    frontback
    {
        type            empty;
    }
}


// ************************************************************************* //
