/*--------------------------------*- C++ -*----------------------------------*\
| =========                 |                                                 |
| \\      /  F ield         | OpenFOAM: The Open Source CFD Toolbox           |
|  \\    /   O peration     | Version:  2.4.0                                 |
|   \\  /    A nd           | Web:      www.OpenFOAM.org                      |
|    \\/     M anipulation  |                                                 |
\*---------------------------------------------------------------------------*/
FoamFile
{
    version     2.0;
    format      ascii;
    class       volVectorField;
    location    "0.14";
    object      U.airMean;
}
// * * * * * * * * * * * * * * * * * * * * * * * * * * * * * * * * * * * * * //

dimensions      [0 1 -1 0 0 0 0];

internalField   nonuniform List<vector> 
1000
(
(-6.63386e-14 0 0)
(-3.67353e-14 0 0)
(-7.06886e-14 0 0)
(-3.3949e-14 0 0)
(-8.71832e-14 0 0)
(-2.61382e-14 0 0)
(-7.05465e-14 0 0)
(-5.65339e-14 0 0)
(-5.32196e-14 0 0)
(-4.73933e-14 0 0)
(-5.31841e-14 0 0)
(-8.58384e-14 0 0)
(-4.36581e-14 0 0)
(-9.67197e-14 0 0)
(-2.77572e-14 0 0)
(-7.04804e-14 0 0)
(-1.15365e-14 0 0)
(-4.05718e-14 0 0)
(1.02365e-14 0 0)
(-6.71407e-14 0 0)
(1.3515e-14 0 0)
(-6.20401e-14 0 0)
(-1.98853e-14 0 0)
(-6.24769e-14 0 0)
(-7.07192e-14 0 0)
(-6.20355e-14 0 0)
(-7.6028e-14 0 0)
(-5.25399e-14 0 0)
(-1.08266e-13 0 0)
(-3.94204e-14 0 0)
(-8.59145e-14 0 0)
(-7.91138e-14 0 0)
(-6.24924e-14 0 0)
(-8.30826e-14 0 0)
(-3.7441e-14 0 0)
(-1.24974e-13 0 0)
(-2.18826e-15 0 0)
(-1.04475e-13 0 0)
(-3.79587e-14 0 0)
(-1.04541e-13 0 0)
(-5.92242e-14 0 0)
(-1.02622e-13 0 0)
(-8.09868e-14 0 0)
(-1.0277e-13 0 0)
(-6.70044e-14 0 0)
(-8.39506e-14 0 0)
(-9.24619e-14 0 0)
(-7.97331e-14 0 0)
(-8.8696e-14 0 0)
(-8.15299e-14 0 0)
(-9.46795e-14 0 0)
(-6.52992e-14 0 0)
(-7.08713e-14 0 0)
(-4.3526e-14 0 0)
(-4.86009e-14 0 0)
(-1.3668e-14 0 0)
(-3.17765e-14 0 0)
(-1.69668e-14 0 0)
(-5.157e-14 0 0)
(-1.70533e-14 0 0)
(-6.28167e-14 0 0)
(2.2468e-14 0 0)
(-2.47065e-14 0 0)
(-2.44172e-14 0 0)
(1.12518e-14 0 0)
(-3.36481e-15 0 0)
(3.27863e-14 0 0)
(1.90425e-14 0 0)
(1.01203e-14 0 0)
(1.99762e-14 0 0)
(-9.43476e-15 0 0)
(6.02416e-15 0 0)
(-2.24376e-14 0 0)
(5.34407e-15 0 0)
(-7.07502e-15 0 0)
(-2.78175e-14 0 0)
(6.38944e-15 0 0)
(-2.58838e-14 0 0)
(-2.44984e-14 0 0)
(-7.48613e-15 0 0)
(-2.21081e-14 0 0)
(1.49568e-14 0 0)
(-6.61299e-15 0 0)
(3.67399e-14 0 0)
(-2.5564e-14 0 0)
(2.0773e-14 0 0)
(-1.84485e-14 0 0)
(1.5723e-14 0 0)
(-7.1663e-15 0 0)
(-1.6058e-14 0 0)
(1.55709e-14 0 0)
(7.71455e-16 0 0)
(-6.48101e-15 0 0)
(4.11087e-15 0 0)
(-2.08035e-14 0 0)
(1.6408e-14 0 0)
(-5.87055e-14 0 0)
(2.64317e-14 0 0)
(-5.18287e-14 0 0)
(-3.07108e-14 0 0)
(-5.47116e-14 0 0)
(-2.52041e-14 0 0)
(-5.41331e-14 0 0)
(-4.22571e-14 0 0)
(-6.33348e-14 0 0)
(-7.28304e-14 0 0)
(-4.28866e-14 0 0)
(-6.70956e-14 0 0)
(-9.93691e-14 0 0)
(-7.03135e-14 0 0)
(-1.1558e-13 0 0)
(-6.88113e-14 0 0)
(-9.88414e-14 0 0)
(-8.62601e-14 0 0)
(-1.01191e-13 0 0)
(-8.18189e-14 0 0)
(-6.16751e-14 0 0)
(-4.00747e-14 0 0)
(-2.2504e-14 0 0)
(-5.81882e-14 0 0)
(-1.8679e-15 0 0)
(-3.0472e-14 0 0)
(2.22347e-14 0 0)
(-2.85078e-14 0 0)
(1.3023e-14 0 0)
(-3.91304e-14 0 0)
(2.01971e-15 0 0)
(-3.81711e-14 0 0)
(1.30177e-14 0 0)
(-6.50851e-14 0 0)
(1.45604e-14 0 0)
(-7.30382e-14 0 0)
(-1.97076e-14 0 0)
(-4.3749e-14 0 0)
(5.3339e-15 0 0)
(-2.54778e-14 0 0)
(-8.06469e-15 0 0)
(5.86199e-15 0 0)
(2.427e-14 0 0)
(2.90156e-14 0 0)
(1.30283e-14 0 0)
(3.22635e-14 0 0)
(-1.73927e-14 0 0)
(2.85077e-14 0 0)
(-3.13244e-14 0 0)
(2.76246e-14 0 0)
(-5.09557e-15 0 0)
(-2.80154e-15 0 0)
(4.8722e-15 0 0)
(-1.58907e-14 0 0)
(-2.14635e-14 0 0)
(-4.29624e-14 0 0)
(-3.85419e-14 0 0)
(-2.59398e-14 0 0)
(-1.90579e-14 0 0)
(-3.25331e-15 0 0)
(-4.47083e-14 0 0)
(-2.19203e-14 0 0)
(-5.79599e-14 0 0)
(-3.60906e-14 0 0)
(-8.2047e-14 0 0)
(-7.61332e-15 0 0)
(-5.71781e-14 0 0)
(-1.87332e-14 0 0)
(-4.83928e-14 0 0)
(-4.98427e-15 0 0)
(-7.63374e-14 0 0)
(-1.25465e-14 0 0)
(-8.19e-14 0 0)
(-6.79888e-14 0 0)
(-8.23722e-14 0 0)
(-7.21964e-14 0 0)
(-1.02785e-13 0 0)
(-7.19681e-14 0 0)
(-1.19163e-13 0 0)
(-8.12509e-14 0 0)
(-1.40621e-13 0 0)
(-8.85543e-14 0 0)
(-1.55355e-13 0 0)
(-1.50138e-13 0 0)
(-1.41951e-13 0 0)
(-1.44529e-13 0 0)
(-1.20092e-13 0 0)
(-1.78686e-13 0 0)
(-1.01552e-13 0 0)
(-1.7154e-13 0 0)
(-9.0001e-14 0 0)
(-1.98159e-13 0 0)
(-6.25691e-14 0 0)
(-1.61034e-13 0 0)
(-6.16655e-14 0 0)
(-1.5709e-13 0 0)
(-7.15115e-14 0 0)
(-1.40154e-13 0 0)
(-1.03699e-13 0 0)
(-1.42575e-13 0 0)
(-1.1388e-13 0 0)
(-1.21087e-13 0 0)
(-9.37968e-14 0 0)
(-1.28096e-13 0 0)
(-9.01631e-14 0 0)
(-1.61557e-13 0 0)
(-7.03594e-14 0 0)
(-1.2535e-13 0 0)
(-1.04673e-13 0 0)
(-1.01811e-13 0 0)
(-6.16144e-14 0 0)
(-7.57489e-14 0 0)
(-8.38185e-14 0 0)
(-5.92035e-14 0 0)
(-5.44885e-14 0 0)
(-3.63393e-14 0 0)
(-5.95331e-14 0 0)
(-4.55789e-15 0 0)
(-3.80544e-14 0 0)
(1.26931e-14 0 0)
(-1.86668e-14 0 0)
(-5.27326e-15 0 0)
(-2.82686e-15 0 0)
(2.32947e-15 0 0)
(8.73961e-15 0 0)
(-1.29368e-14 0 0)
(1.01809e-14 0 0)
(-5.11092e-15 0 0)
(-1.87175e-14 0 0)
(7.02914e-15 0 0)
(1.43274e-14 0 0)
(-1.72354e-14 0 0)
(1.34645e-14 0 0)
(-1.65555e-14 0 0)
(-3.54358e-14 0 0)
(-2.30521e-14 0 0)
(-6.49078e-14 0 0)
(-5.90796e-15 0 0)
(-6.32887e-14 0 0)
(1.8357e-14 0 0)
(-5.14785e-14 0 0)
(7.88668e-15 0 0)
(-6.33599e-14 0 0)
(-4.34649e-14 0 0)
(-3.93438e-14 0 0)
(-1.30133e-14 0 0)
(-6.39179e-14 0 0)
(2.0656e-14 0 0)
(-1.77329e-14 0 0)
(3.60328e-15 0 0)
(9.70416e-15 0 0)
(2.43867e-14 0 0)
(1.35664e-14 0 0)
(3.03959e-14 0 0)
(1.77535e-14 0 0)
(4.17747e-14 0 0)
(3.79125e-14 0 0)
(1.14224e-15 0 0)
(5.08136e-14 0 0)
(-9.48028e-15 0 0)
(5.06614e-14 0 0)
(2.22834e-15 0 0)
(4.68244e-14 0 0)
(-9.07414e-15 0 0)
(6.80137e-14 0 0)
(2.2149e-14 0 0)
(4.53527e-14 0 0)
(2.92287e-14 0 0)
(5.22773e-15 0 0)
(3.74758e-14 0 0)
(-4.15662e-14 0 0)
(6.92266e-14 0 0)
(-9.96241e-15 0 0)
(9.6334e-14 0 0)
(1.80735e-14 0 0)
(9.38319e-14 0 0)
(2.64578e-14 0 0)
(6.11776e-14 0 0)
(3.6649e-14 0 0)
(8.14482e-14 0 0)
(2.53008e-14 0 0)
(1.0756e-13 0 0)
(5.24384e-14 0 0)
(1.08342e-13 0 0)
(1.01973e-13 0 0)
(1.17387e-13 0 0)
(1.26893e-13 0 0)
(5.63061e-14 0 0)
(1.52573e-13 0 0)
(1.02115e-13 0 0)
(1.18884e-13 0 0)
(1.28872e-13 0 0)
(1.4591e-13 0 0)
(1.12393e-13 0 0)
(1.48062e-13 0 0)
(1.37033e-13 0 0)
(1.57629e-13 0 0)
(1.00192e-13 0 0)
(1.79554e-13 0 0)
(1.28806e-13 0 0)
(1.40297e-13 0 0)
(1.48925e-13 0 0)
(1.60354e-13 0 0)
(1.14382e-13 0 0)
(1.7929e-13 0 0)
(1.35704e-13 0 0)
(1.5199e-13 0 0)
(1.44717e-13 0 0)
(1.15641e-13 0 0)
(1.56055e-13 0 0)
(1.32867e-13 0 0)
(1.2536e-13 0 0)
(1.17503e-13 0 0)
(9.03914e-14 0 0)
(1.24624e-13 0 0)
(9.44516e-14 0 0)
(1.1861e-13 0 0)
(1.07049e-13 0 0)
(1.48767e-13 0 0)
(1.34694e-13 0 0)
(1.57715e-13 0 0)
(1.19508e-13 0 0)
(1.24188e-13 0 0)
(1.60161e-13 0 0)
(1.49107e-13 0 0)
(1.41205e-13 0 0)
(1.63354e-13 0 0)
(1.36303e-13 0 0)
(1.73245e-13 0 0)
(1.32384e-13 0 0)
(1.21401e-13 0 0)
(1.30384e-13 0 0)
(1.11307e-13 0 0)
(1.18544e-13 0 0)
(1.38261e-13 0 0)
(1.49671e-13 0 0)
(1.07302e-13 0 0)
(1.77706e-13 0 0)
(9.58475e-14 0 0)
(1.62785e-13 0 0)
(9.53601e-14 0 0)
(1.04749e-13 0 0)
(1.14905e-13 0 0)
(1.0648e-13 0 0)
(1.21081e-13 0 0)
(9.73038e-14 0 0)
(1.06901e-13 0 0)
(6.12542e-14 0 0)
(1.06972e-13 0 0)
(4.01817e-14 0 0)
(1.29039e-13 0 0)
(6.69335e-14 0 0)
(9.79887e-14 0 0)
(7.7297e-14 0 0)
(8.85234e-14 0 0)
(7.63529e-14 0 0)
(9.85928e-14 0 0)
(5.48034e-14 0 0)
(1.19868e-13 0 0)
(7.95554e-14 0 0)
(8.28749e-14 0 0)
(9.33398e-14 0 0)
(1.04932e-13 0 0)
(1.01658e-13 0 0)
(9.22335e-14 0 0)
(7.90884e-14 0 0)
(6.15129e-14 0 0)
(8.25752e-14 0 0)
(8.31487e-14 0 0)
(1.12905e-13 0 0)
(4.8297e-14 0 0)
(9.90849e-14 0 0)
(5.71735e-14 0 0)
(7.85099e-14 0 0)
(6.93237e-14 0 0)
(9.34971e-14 0 0)
(6.95877e-14 0 0)
(9.14111e-14 0 0)
(6.81465e-14 0 0)
(1.28775e-13 0 0)
(9.70553e-14 0 0)
(1.63358e-13 0 0)
(9.58983e-14 0 0)
(1.74133e-13 0 0)
(1.13073e-13 0 0)
(1.48787e-13 0 0)
(1.15874e-13 0 0)
(1.09378e-13 0 0)
(1.16686e-13 0 0)
(5.53469e-14 0 0)
(1.45828e-13 0 0)
(8.08653e-14 0 0)
(1.37449e-13 0 0)
(7.21865e-14 0 0)
(1.06206e-13 0 0)
(9.91919e-14 0 0)
(1.30471e-13 0 0)
(6.49897e-14 0 0)
(1.44854e-13 0 0)
(7.52113e-14 0 0)
(1.39901e-13 0 0)
(1.10606e-13 0 0)
(1.74651e-13 0 0)
(1.42383e-13 0 0)
(1.64277e-13 0 0)
(1.7088e-13 0 0)
(1.3474e-13 0 0)
(1.90608e-13 0 0)
(1.61461e-13 0 0)
(1.74626e-13 0 0)
(1.72672e-13 0 0)
(1.85294e-13 0 0)
(1.35318e-13 0 0)
(1.73164e-13 0 0)
(1.21031e-13 0 0)
(1.94044e-13 0 0)
(1.32588e-13 0 0)
(1.69759e-13 0 0)
(1.29649e-13 0 0)
(1.65409e-13 0 0)
(1.27451e-13 0 0)
(1.69779e-13 0 0)
(8.46822e-14 0 0)
(2.05214e-13 0 0)
(1.26751e-13 0 0)
(1.61816e-13 0 0)
(1.43484e-13 0 0)
(1.74798e-13 0 0)
(1.58801e-13 0 0)
(1.40855e-13 0 0)
(1.67155e-13 0 0)
(1.26649e-13 0 0)
(1.47219e-13 0 0)
(1.07044e-13 0 0)
(1.62009e-13 0 0)
(1.34496e-13 0 0)
(1.31786e-13 0 0)
(1.62694e-13 0 0)
(1.6781e-13 0 0)
(1.36242e-13 0 0)
(1.53518e-13 0 0)
(1.08449e-13 0 0)
(1.31003e-13 0 0)
(7.16943e-14 0 0)
(1.3989e-13 0 0)
(8.30679e-14 0 0)
(1.1018e-13 0 0)
(1.16067e-13 0 0)
(1.18143e-13 0 0)
(1.21797e-13 0 0)
(1.02166e-13 0 0)
(1.26512e-13 0 0)
(1.02435e-13 0 0)
(9.72276e-14 0 0)
(1.04191e-13 0 0)
(8.15756e-14 0 0)
(1.35358e-13 0 0)
(1.14656e-13 0 0)
(1.09074e-13 0 0)
(1.27766e-13 0 0)
(1.22472e-13 0 0)
(8.03779e-14 0 0)
(1.20269e-13 0 0)
(2.97673e-14 0 0)
(1.39296e-13 0 0)
(3.86642e-14 0 0)
(9.42632e-14 0 0)
(-3.29345e-15 0 0)
(6.16138e-14 0 0)
(-1.67279e-14 0 0)
(1.74944e-14 0 0)
(-3.09895e-14 0 0)
(8.18112e-15 0 0)
(-1.87988e-14 0 0)
(-1.73068e-14 0 0)
(-8.00868e-15 0 0)
(8.87149e-15 0 0)
(1.42412e-14 0 0)
(9.65685e-17 0 0)
(1.79144e-15 0 0)
(-1.47638e-14 0 0)
(1.46927e-14 0 0)
(-3.88663e-14 0 0)
(3.6075e-14 0 0)
(1.62868e-14 0 0)
(6.69684e-14 0 0)
(1.01866e-14 0 0)
(1.21254e-13 0 0)
(8.35905e-14 0 0)
(1.71063e-13 0 0)
(2.33642e-13 0 0)
(4.04314e-13 0 0)
(5.53224e-13 0 0)
(9.82427e-13 0 0)
(1.45067e-12 0 0)
(2.26056e-12 0 0)
(3.47636e-12 0 0)
(5.32326e-12 0 0)
(8.14649e-12 0 0)
(1.2393e-11 0 0)
(1.87933e-11 0 0)
(2.83445e-11 0 0)
(4.2702e-11 0 0)
(6.40089e-11 0 0)
(9.57677e-11 0 0)
(1.42661e-10 0 0)
(2.11891e-10 0 0)
(3.13717e-10 0 0)
(4.62859e-10 0 0)
(6.80693e-10 0 0)
(9.9757e-10 0 0)
(1.45717e-09 0 0)
(2.12111e-09 0 0)
(3.07726e-09 0 0)
(4.44885e-09 0 0)
(6.40982e-09 0 0)
(9.20301e-09 0 0)
(1.31675e-08 0 0)
(1.87739e-08 0 0)
(2.66733e-08 0 0)
(3.77625e-08 0 0)
(5.32723e-08 0 0)
(7.48842e-08 0 0)
(1.04886e-07 0 0)
(1.4638e-07 0 0)
(2.03549e-07 0 0)
(2.82017e-07 0 0)
(3.89306e-07 0 0)
(5.35438e-07 0 0)
(7.33706e-07 0 0)
(1.00167e-06 0 0)
(1.3624e-06 0 0)
(1.84611e-06 0 0)
(2.49215e-06 0 0)
(3.35158e-06 0 0)
(4.4903e-06 0 0)
(5.99298e-06 0 0)
(7.96796e-06 0 0)
(1.05531e-05 0 0)
(1.3923e-05 0 0)
(1.82979e-05 0 0)
(2.3954e-05 0 0)
(3.1236e-05 0 0)
(4.05721e-05 0 0)
(5.24915e-05 0 0)
(6.76445e-05 0 0)
(8.68267e-05 0 0)
(0.000111006 0 0)
(0.000141353 0 0)
(0.000179278 0 0)
(0.000226469 0 0)
(0.000284933 0 0)
(0.00035705 0 0)
(0.000445619 0 0)
(0.000553919 0 0)
(0.000685764 0 0)
(0.000845569 0 0)
(0.00103841 0 0)
(0.00127011 0 0)
(0.00154725 0 0)
(0.00187731 0 0)
(0.00226868 0 0)
(0.00273071 0 0)
(0.00327379 0 0)
(0.0039094 0 0)
(0.0046501 0 0)
(0.00550959 0 0)
(0.00650272 0 0)
(0.00764546 0 0)
(0.00895492 0 0)
(0.0104493 0 0)
(0.0121479 0 0)
(0.0140708 0 0)
(0.0162393 0 0)
(0.0186754 0 0)
(0.0214017 0 0)
(0.0244417 0 0)
(0.0278192 0 0)
(0.0315585 0 0)
(0.0356841 0 0)
(0.0402207 0 0)
(0.045193 0 0)
(0.0506257 0 0)
(0.0565432 0 0)
(0.0629694 0 0)
(0.0699281 0 0)
(0.0774424 0 0)
(0.0855346 0 0)
(0.0942266 0 0)
(0.103539 0 0)
(0.113493 0 0)
(0.124107 0 0)
(0.1354 0 0)
(0.147388 0 0)
(0.16009 0 0)
(0.173519 0 0)
(0.187692 0 0)
(0.20262 0 0)
(0.218318 0 0)
(0.234797 0 0)
(0.252068 0 0)
(0.270141 0 0)
(0.289025 0 0)
(0.308729 0 0)
(0.329261 0 0)
(0.350627 0 0)
(0.372834 0 0)
(0.395888 0 0)
(0.419795 0 0)
(0.444558 0 0)
(0.470182 0 0)
(0.496671 0 0)
(0.524029 0 0)
(0.552257 0 0)
(0.58136 0 0)
(0.61134 0 0)
(0.642198 0 0)
(0.673937 0 0)
(0.706558 0 0)
(0.740063 0 0)
(0.774454 0 0)
(0.809731 0 0)
(0.845897 0 0)
(0.882951 0 0)
(0.920895 0 0)
(0.95973 0 0)
(0.999458 0 0)
(1.04008 0 0)
(1.08159 0 0)
(1.124 0 0)
(1.1673 0 0)
(1.2115 0 0)
(1.2566 0 0)
(1.30259 0 0)
(1.34948 0 0)
(1.39728 0 0)
(1.44597 0 0)
(1.49556 0 0)
(1.54606 0 0)
(1.59746 0 0)
(1.64976 0 0)
(1.70297 0 0)
(1.75709 0 0)
(1.81211 0 0)
(1.86804 0 0)
(1.92488 0 0)
(1.98263 0 0)
(2.04129 0 0)
(2.10087 0 0)
(2.16136 0 0)
(2.22277 0 0)
(2.28509 0 0)
(2.34834 0 0)
(2.4125 0 0)
(2.47759 0 0)
(2.54359 0 0)
(2.61053 0 0)
(2.67839 0 0)
(2.74717 0 0)
(2.81689 0 0)
(2.88754 0 0)
(2.95912 0 0)
(3.03163 0 0)
(3.10508 0 0)
(3.17947 0 0)
(3.2548 0 0)
(3.33107 0 0)
(3.40828 0 0)
(3.48644 0 0)
(3.56555 0 0)
(3.6456 0 0)
(3.72661 0 0)
(3.80857 0 0)
(3.89148 0 0)
(3.97535 0 0)
(4.06018 0 0)
(4.14597 0 0)
(4.23273 0 0)
(4.32045 0 0)
(4.40914 0 0)
(4.4988 0 0)
(4.58943 0 0)
(4.68103 0 0)
(4.77361 0 0)
(4.86717 0 0)
(4.96171 0 0)
(5.05724 0 0)
(5.15374 0 0)
(5.25124 0 0)
(5.34973 0 0)
(5.44921 0 0)
(5.54968 0 0)
(5.65116 0 0)
(5.75363 0 0)
(5.8571 0 0)
(5.96158 0 0)
(6.06707 0 0)
(6.17357 0 0)
(6.28108 0 0)
(6.3896 0 0)
(6.49915 0 0)
(6.60971 0 0)
(6.72129 0 0)
(6.83391 0 0)
(6.94755 0 0)
(7.06222 0 0)
(7.17792 0 0)
(7.29467 0 0)
(7.41245 0 0)
(7.53127 0 0)
(7.65115 0 0)
(7.77207 0 0)
(7.89404 0 0)
(8.01706 0 0)
(8.14115 0 0)
(8.26629 0 0)
(8.3925 0 0)
(8.51978 0 0)
(8.64812 0 0)
(8.77754 0 0)
(8.90804 0 0)
(9.03962 0 0)
(9.17228 0 0)
(9.30603 0 0)
(9.44087 0 0)
(9.57681 0 0)
(9.71384 0 0)
(9.85197 0 0)
(9.99121 0 0)
(10.1316 0 0)
(10.273 0 0)
(10.4156 0 0)
(10.5593 0 0)
(10.7041 0 0)
(10.8501 0 0)
(10.9971 0 0)
(11.1454 0 0)
(11.2947 0 0)
(11.4452 0 0)
(11.5969 0 0)
(11.7497 0 0)
(11.9036 0 0)
(12.0587 0 0)
(12.215 0 0)
(12.3725 0 0)
(12.5311 0 0)
(12.6909 0 0)
(12.8519 0 0)
(13.0141 0 0)
(13.1774 0 0)
(13.342 0 0)
(13.5078 0 0)
(13.6747 0 0)
(13.8429 0 0)
(14.0123 0 0)
(14.1829 0 0)
(14.3548 0 0)
(14.5279 0 0)
(14.7022 0 0)
(14.8777 0 0)
(15.0545 0 0)
(15.2326 0 0)
(15.4119 0 0)
(15.5924 0 0)
(15.7743 0 0)
(15.9574 0 0)
(16.1418 0 0)
(16.3275 0 0)
(16.5144 0 0)
(16.7027 0 0)
(16.8923 0 0)
(17.0831 0 0)
(17.2753 0 0)
(17.4688 0 0)
(17.6637 0 0)
(17.8598 0 0)
(18.0573 0 0)
(18.2562 0 0)
(18.4564 0 0)
(18.658 0 0)
(18.8609 0 0)
(19.0652 0 0)
(19.2709 0 0)
(19.478 0 0)
(19.6865 0 0)
(19.8964 0 0)
(20.1077 0 0)
(20.3204 0 0)
(20.5345 0 0)
(20.7501 0 0)
(20.9671 0 0)
(21.1855 0 0)
(21.4054 0 0)
(21.6268 0 0)
(21.8496 0 0)
(22.0739 0 0)
(22.2998 0 0)
(22.5271 0 0)
(22.7559 0 0)
(22.9862 0 0)
(23.2181 0 0)
(23.4514 0 0)
(23.6865 0 0)
(23.9228 0 0)
(24.1611 0 0)
(24.4005 0 0)
(24.642 0 0)
(24.8844 0 0)
(25.1293 0 0)
(25.3747 0 0)
(25.6231 0 0)
(25.8715 0 0)
(26.1234 0 0)
(26.3749 0 0)
(26.6304 0 0)
(26.885 0 0)
(27.144 0 0)
(27.4019 0 0)
(27.6644 0 0)
(27.9257 0 0)
(28.1918 0 0)
(28.4565 0 0)
(28.7261 0 0)
(28.9944 0 0)
(29.2674 0 0)
(29.5396 0 0)
(29.8159 0 0)
(30.0922 0 0)
(30.3716 0 0)
(30.6524 0 0)
(30.9346 0 0)
(31.2203 0 0)
(31.505 0 0)
(31.7959 0 0)
(32.0831 0 0)
(32.3794 0 0)
(32.6691 0 0)
(32.9708 0 0)
(33.2631 0 0)
(33.5703 0 0)
(33.8652 0 0)
(34.178 0 0)
(34.4757 0 0)
(34.7942 0 0)
(35.0945 0 0)
(35.4189 0 0)
(35.7221 0 0)
(36.0524 0 0)
(36.3584 0 0)
(36.6948 0 0)
(37.0037 0 0)
(37.3463 0 0)
(37.6582 0 0)
(38.0072 0 0)
(38.3221 0 0)
(38.6776 0 0)
(38.9957 0 0)
(39.3578 0 0)
(39.679 0 0)
(40.0481 0 0)
(40.3725 0 0)
(40.7486 0 0)
(41.0764 0 0)
(41.4597 0 0)
(41.7909 0 0)
(42.1816 0 0)
(42.5164 0 0)
(42.9146 0 0)
(43.2532 0 0)
(43.659 0 0)
(44.0018 0 0)
(44.4151 0 0)
(44.7623 0 0)
(45.1834 0 0)
(45.5354 0 0)
(45.9642 0 0)
(46.3213 0 0)
(46.7581 0 0)
(47.1206 0 0)
(47.5654 0 0)
(47.9338 0 0)
(48.3867 0 0)
(48.7614 0 0)
(49.2225 0 0)
(49.604 0 0)
(50.0737 0 0)
(50.4623 0 0)
(50.9407 0 0)
(51.337 0 0)
(51.8245 0 0)
(52.2288 0 0)
(52.7257 0 0)
(53.1386 0 0)
(53.6453 0 0)
(54.0669 0 0)
(54.5838 0 0)
(55.0144 0 0)
(55.5415 0 0)
(55.9809 0 0)
(56.5174 0 0)
(56.9645 0 0)
(57.5087 0 0)
(57.9602 0 0)
(58.507 0 0)
(58.9554 0 0)
(59.4979 0 0)
(59.9266 0 0)
(60.448 0 0)
(60.8589 0 0)
(61.369 0 0)
(61.7747 0 0)
(62.2858 0 0)
(62.6957 0 0)
(63.2149 0 0)
(63.6317 0 0)
(64.1599 0 0)
(64.583 0 0)
(65.1181 0 0)
(65.5458 0 0)
(66.0854 0 0)
(66.5163 0 0)
(67.0596 0 0)
(67.4931 0 0)
(68.04 0 0)
(68.4762 0 0)
(69.027 0 0)
(69.4662 0 0)
(70.0212 0 0)
(70.4635 0 0)
(71.0227 0 0)
(71.468 0 0)
(72.0312 0 0)
(72.4793 0 0)
(73.0463 0 0)
(73.497 0 0)
(74.0676 0 0)
(74.5208 0 0)
(75.0948 0 0)
(75.5503 0 0)
(76.1277 0 0)
(76.5852 0 0)
(77.166 0 0)
(77.6255 0 0)
(78.2095 0 0)
(78.6709 0 0)
(79.2579 0 0)
(79.7209 0 0)
(80.3109 0 0)
(80.7752 0 0)
(81.3679 0 0)
(81.8333 0 0)
(82.4283 0 0)
(82.8945 0 0)
(83.4916 0 0)
(83.9583 0 0)
(84.5571 0 0)
(85.0238 0 0)
(85.6242 0 0)
(86.0906 0 0)
(86.6921 0 0)
(87.1579 0 0)
(87.7603 0 0)
(88.2249 0 0)
(88.828 0 0)
(89.2909 0 0)
(89.8939 0 0)
(90.3544 0 0)
(90.9567 0 0)
(91.4137 0 0)
(92.0142 0 0)
(92.4664 0 0)
(93.0636 0 0)
(93.5094 0 0)
(94.1015 0 0)
(94.5385 0 0)
(95.1234 0 0)
(95.5494 0 0)
(96.1247 0 0)
(96.5369 0 0)
(97.1002 0 0)
(97.4964 0 0)
(98.0452 0 0)
(98.4231 0 0)
(98.9625 0 0)
(99.3276 0 0)
(99.8508 0 0)
(100.183 0 0)
(100.677 0 0)
(100.951 0 0)
(101.412 0 0)
(101.619 0 0)
(102.042 0 0)
(102.172 0 0)
(102.553 0 0)
(102.596 0 0)
(102.93 0 0)
(102.884 0 0)
(103.173 0 0)
(103.046 0 0)
(103.307 0 0)
(103.129 0 0)
(103.409 0 0)
(103.246 0 0)
(104.5 0 0)
)
;

boundaryField
{
    sideLeft
    {
        type            symmetryPlane;
    }
    sideRight
    {
        type            calculated;
        value           uniform (104.107 0 0);
    }
    topbottom
    {
        type            empty;
    }
    frontback
    {
        type            empty;
    }
}


// ************************************************************************* //
