/*--------------------------------*- C++ -*----------------------------------*\
| =========                 |                                                 |
| \\      /  F ield         | OpenFOAM: The Open Source CFD Toolbox           |
|  \\    /   O peration     | Version:  2.4.0                                 |
|   \\  /    A nd           | Web:      www.OpenFOAM.org                      |
|    \\/     M anipulation  |                                                 |
\*---------------------------------------------------------------------------*/
FoamFile
{
    version     2.0;
    format      ascii;
    class       volVectorField;
    location    "0.14";
    object      U.air;
}
// * * * * * * * * * * * * * * * * * * * * * * * * * * * * * * * * * * * * * //

dimensions      [0 1 -1 0 0 0 0];

internalField   nonuniform List<vector> 
1000
(
(-1.0658e-13 0 0)
(-1.13687e-13 0 0)
(-3.55271e-13 0 0)
(-4.54748e-13 0 0)
(-6.46593e-13 0 0)
(-4.8317e-13 0 0)
(-3.76587e-13 0 0)
(-4.83169e-13 0 0)
(-6.39489e-13 0 0)
(-6.89227e-13 0 0)
(-5.68434e-13 0 0)
(-7.17648e-13 0 0)
(-7.53176e-13 0 0)
(-7.67385e-13 0 0)
(-5.32908e-13 0 0)
(-5.40012e-13 0 0)
(-4.68959e-13 0 0)
(-3.83693e-13 0 0)
(-1.5632e-13 0 0)
(-3.12638e-13 0 0)
(-2.55796e-13 0 0)
(-3.55271e-13 0 0)
(-5.32908e-13 0 0)
(-5.8975e-13 0 0)
(-5.18696e-13 0 0)
(-5.61329e-13 0 0)
(-9.166e-13 0 0)
(-9.59233e-13 0 0)
(-8.10018e-13 0 0)
(-9.45023e-13 0 0)
(-9.37916e-13 0 0)
(-8.88178e-13 0 0)
(-6.60805e-13 0 0)
(-7.10542e-13 0 0)
(-8.95285e-13 0 0)
(-1.10134e-12 0 0)
(-1.10134e-12 0 0)
(-1.15108e-12 0 0)
(-1.27187e-12 0 0)
(-1.22213e-12 0 0)
(-1.1795e-12 0 0)
(-1.22924e-12 0 0)
(-1.16529e-12 0 0)
(-9.09494e-13 0 0)
(-7.17649e-13 0 0)
(-8.17124e-13 0 0)
(-7.67386e-13 0 0)
(-5.96856e-13 0 0)
(-6.25278e-13 0 0)
(-6.60805e-13 0 0)
(-4.54747e-13 0 0)
(-3.76588e-13 0 0)
(-4.26325e-13 0 0)
(-1.27898e-13 0 0)
(-1.77635e-13 0 0)
(-1.42109e-13 0 0)
(1.63425e-13 0 0)
(1.91846e-13 0 0)
(2.91323e-13 0 0)
(3.05533e-13 0 0)
(3.19745e-13 0 0)
(6.25277e-13 0 0)
(8.45546e-13 0 0)
(1.06581e-12 0 0)
(1.25766e-12 0 0)
(1.07292e-12 0 0)
(7.31859e-13 0 0)
(6.53699e-13 0 0)
(7.31859e-13 0 0)
(8.10018e-13 0 0)
(6.32383e-13 0 0)
(5.75539e-13 0 0)
(3.55272e-13 0 0)
(1.35003e-13 0 0)
(1.56319e-13 0 0)
(4.26329e-14 0 0)
(-2.13168e-14 0 0)
(-7.1054e-14 0 0)
(-6.39486e-14 0 0)
(-1.42111e-14 0 0)
(1.27898e-13 0 0)
(1.84741e-13 0 0)
(9.94764e-14 0 0)
(-8.52659e-14 0 0)
(-9.23698e-14 0 0)
(3.12638e-13 0 0)
(1.91847e-13 0 0)
(3.55267e-14 0 0)
(-2.98428e-13 0 0)
(-4.54747e-13 0 0)
(-6.537e-13 0 0)
(-7.24754e-13 0 0)
(-8.59757e-13 0 0)
(-1.10845e-12 0 0)
(-9.87654e-13 0 0)
(-9.23706e-13 0 0)
(-8.66861e-13 0 0)
(-8.24231e-13 0 0)
(-1.09424e-12 0 0)
(-9.73444e-13 0 0)
(-8.3844e-13 0 0)
(-7.95808e-13 0 0)
(-9.37916e-13 0 0)
(-7.67386e-13 0 0)
(-8.59757e-13 0 0)
(-9.23705e-13 0 0)
(-8.59757e-13 0 0)
(-8.81073e-13 0 0)
(-6.60804e-13 0 0)
(-5.68435e-13 0 0)
(-4.3343e-13 0 0)
(-1.91847e-13 0 0)
(-1.56319e-13 0 0)
(-1.49214e-13 0 0)
(3.55274e-14 0 0)
(2.4869e-13 0 0)
(1.13687e-13 0 0)
(-6.39489e-14 0 0)
(-6.39492e-14 0 0)
(-7.81591e-14 0 0)
(2.55795e-13 0 0)
(3.41061e-13 0 0)
(3.76587e-13 0 0)
(7.10606e-15 0 0)
(1.13686e-13 0 0)
(3.97905e-13 0 0)
(6.8212e-13 0 0)
(8.59757e-13 0 0)
(9.66337e-13 0 0)
(5.6133e-13 0 0)
(6.32382e-13 0 0)
(7.03438e-13 0 0)
(7.53175e-13 0 0)
(6.75016e-13 0 0)
(3.12638e-13 0 0)
(4.97384e-14 0 0)
(-1.77636e-13 0 0)
(-1.13687e-13 0 0)
(-2.84218e-14 0 0)
(6.39488e-14 0 0)
(2.55796e-13 0 0)
(2.06057e-13 0 0)
(6.39495e-14 0 0)
(3.76587e-13 0 0)
(3.97905e-13 0 0)
(5.54223e-13 0 0)
(5.82645e-13 0 0)
(6.96332e-13 0 0)
(5.8975e-13 0 0)
(5.25802e-13 0 0)
(4.76064e-13 0 0)
(5.11591e-13 0 0)
(8.38441e-13 0 0)
(1.0445e-12 0 0)
(1.10134e-12 0 0)
(1.35003e-12 0 0)
(1.42109e-12 0 0)
(1.42819e-12 0 0)
(1.21503e-12 0 0)
(1.32871e-12 0 0)
(1.22924e-12 0 0)
(1.53477e-12 0 0)
(1.48503e-12 0 0)
(1.25055e-12 0 0)
(1.37135e-12 0 0)
(1.54898e-12 0 0)
(1.39266e-12 0 0)
(1.39977e-12 0 0)
(1.19371e-12 0 0)
(1.10845e-12 0 0)
(1.19371e-12 0 0)
(1.10134e-12 0 0)
(1.21503e-12 0 0)
(1.1724e-12 0 0)
(1.22924e-12 0 0)
(1.24345e-12 0 0)
(1.02318e-12 0 0)
(1.1795e-12 0 0)
(8.2423e-13 0 0)
(8.2423e-13 0 0)
(7.24754e-13 0 0)
(6.96332e-13 0 0)
(7.10542e-13 0 0)
(5.40013e-13 0 0)
(4.68957e-13 0 0)
(1.42109e-13 0 0)
(2.98427e-13 0 0)
(1.70532e-13 0 0)
(3.33954e-13 0 0)
(1.63426e-13 0 0)
(5.68421e-14 0 0)
(-2.41583e-13 0 0)
(-2.62902e-13 0 0)
(-3.19744e-13 0 0)
(-1.06582e-13 0 0)
(-2.91322e-13 0 0)
(-1.63425e-13 0 0)
(-2.13163e-13 0 0)
(-8.52656e-14 0 0)
(2.13167e-14 0 0)
(1.42101e-14 0 0)
(4.97392e-14 0 0)
(4.90273e-13 0 0)
(5.89751e-13 0 0)
(5.54223e-13 0 0)
(3.97904e-13 0 0)
(5.25801e-13 0 0)
(5.96856e-13 0 0)
(6.25278e-13 0 0)
(3.62377e-13 0 0)
(9.94761e-14 0 0)
(-1.42112e-14 0 0)
(5.68439e-14 0 0)
(2.13157e-14 0 0)
(-2.06057e-13 0 0)
(3.55266e-14 0 0)
(9.23709e-14 0 0)
(3.05533e-13 0 0)
(2.41585e-13 0 0)
(6.39489e-14 0 0)
(-4.97382e-14 0 0)
(-1.98952e-13 0 0)
(-9.23709e-14 0 0)
(-9.23706e-14 0 0)
(9.94763e-14 0 0)
(4.9738e-13 0 0)
(5.32907e-13 0 0)
(4.26326e-13 0 0)
(3.90798e-13 0 0)
(4.68958e-13 0 0)
(3.41061e-13 0 0)
(3.97904e-13 0 0)
(3.33956e-13 0 0)
(5.1159e-13 0 0)
(4.61854e-13 0 0)
(5.54222e-13 0 0)
(3.62378e-13 0 0)
(3.05532e-13 0 0)
(1.70531e-13 0 0)
(7.10539e-15 0 0)
(-5.68432e-14 0 0)
(7.10489e-15 0 0)
(1.98953e-13 0 0)
(2.13162e-13 0 0)
(1.49214e-13 0 0)
(2.34479e-13 0 0)
(3.05533e-13 0 0)
(3.05533e-13 0 0)
(3.05534e-13 0 0)
(3.62377e-13 0 0)
(3.83693e-13 0 0)
(3.33955e-13 0 0)
(1.56319e-13 0 0)
(4.33432e-13 0 0)
(7.10542e-13 0 0)
(5.75541e-13 0 0)
(7.03437e-13 0 0)
(7.67387e-13 0 0)
(9.3081e-13 0 0)
(6.75017e-13 0 0)
(8.81072e-13 0 0)
(8.38441e-13 0 0)
(8.24229e-13 0 0)
(9.30811e-13 0 0)
(6.46594e-13 0 0)
(4.83168e-13 0 0)
(1.35004e-13 0 0)
(2.13162e-13 0 0)
(1.25068e-18 0 0)
(1.8474e-13 0 0)
(1.06582e-13 0 0)
(2.629e-13 0 0)
(4.26326e-13 0 0)
(5.8975e-13 0 0)
(4.0501e-13 0 0)
(4.26319e-14 0 0)
(-1.56318e-13 0 0)
(-1.35004e-13 0 0)
(-3.69481e-13 0 0)
(-2.84218e-13 0 0)
(-2.98428e-13 0 0)
(-2.34479e-13 0 0)
(1.98951e-13 0 0)
(4.68959e-13 0 0)
(6.75015e-13 0 0)
(8.95284e-13 0 0)
(8.73968e-13 0 0)
(6.25278e-13 0 0)
(4.76063e-13 0 0)
(3.41061e-13 0 0)
(5.47118e-13 0 0)
(9.23706e-13 0 0)
(1.27898e-12 0 0)
(1.19371e-12 0 0)
(1.18661e-12 0 0)
(1.07292e-12 0 0)
(9.37916e-13 0 0)
(7.17648e-13 0 0)
(6.96331e-13 0 0)
(6.25278e-13 0 0)
(7.17647e-13 0 0)
(5.47118e-13 0 0)
(4.9738e-13 0 0)
(1.06581e-13 0 0)
(-1.77635e-13 0 0)
(-2.77112e-13 0 0)
(-2.06057e-13 0 0)
(-3.55272e-14 0 0)
(-7.10558e-15 0 0)
(-2.20268e-13 0 0)
(-3.48166e-13 0 0)
(-4.12114e-13 0 0)
(-4.0501e-13 0 0)
(-2.55795e-13 0 0)
(7.10499e-15 0 0)
(-4.26323e-14 0 0)
(1.27897e-13 0 0)
(2.13163e-13 0 0)
(1.49214e-13 0 0)
(-1.27898e-13 0 0)
(-3.33955e-13 0 0)
(-1.56319e-13 0 0)
(-4.26329e-14 0 0)
(-1.91846e-13 0 0)
(-4.97386e-14 0 0)
(-1.98952e-13 0 0)
(-4.54747e-13 0 0)
(-3.41061e-13 0 0)
(-3.26849e-13 0 0)
(-1.13687e-13 0 0)
(1.42108e-14 0 0)
(-8.52655e-14 0 0)
(-2.41584e-13 0 0)
(-1.5632e-13 0 0)
(-2.34478e-13 0 0)
(-3.05534e-13 0 0)
(-4.47641e-13 0 0)
(-2.06057e-13 0 0)
(-2.13163e-13 0 0)
(-8.5265e-14 0 0)
(9.23703e-14 0 0)
(1.7053e-13 0 0)
(1.27897e-13 0 0)
(3.69483e-13 0 0)
(5.1159e-13 0 0)
(3.69483e-13 0 0)
(4.76063e-13 0 0)
(3.05534e-13 0 0)
(4.90274e-13 0 0)
(4.76064e-13 0 0)
(6.96332e-13 0 0)
(5.32907e-13 0 0)
(2.34479e-13 0 0)
(3.55279e-14 0 0)
(4.26319e-14 0 0)
(7.10546e-14 0 0)
(4.1922e-13 0 0)
(1.63425e-13 0 0)
(2.84217e-13 0 0)
(3.62377e-13 0 0)
(3.05533e-13 0 0)
(9.23705e-14 0 0)
(2.8422e-14 0 0)
(2.20268e-13 0 0)
(3.62377e-13 0 0)
(5.8975e-13 0 0)
(3.90799e-13 0 0)
(2.98427e-13 0 0)
(2.4869e-13 0 0)
(1.63425e-13 0 0)
(-1.42106e-14 0 0)
(1.63425e-13 0 0)
(1.5632e-13 0 0)
(-3.00987e-19 0 0)
(-2.13157e-14 0 0)
(4.97373e-14 0 0)
(9.94766e-14 0 0)
(1.42108e-13 0 0)
(1.91848e-13 0 0)
(5.61328e-13 0 0)
(7.17649e-13 0 0)
(7.6028e-13 0 0)
(4.47642e-13 0 0)
(2.41585e-13 0 0)
(5.6843e-14 0 0)
(-2.84206e-14 0 0)
(-6.39499e-14 0 0)
(7.10623e-15 0 0)
(8.52643e-14 0 0)
(2.55796e-13 0 0)
(1.77635e-13 0 0)
(-1.7053e-13 0 0)
(-9.23712e-14 0 0)
(-2.13162e-13 0 0)
(-1.77637e-13 0 0)
(-2.48689e-13 0 0)
(-2.06058e-13 0 0)
(-2.70006e-13 0 0)
(-1.70531e-13 0 0)
(2.13166e-14 0 0)
(9.23705e-14 0 0)
(1.7053e-13 0 0)
(-3.55265e-14 0 0)
(9.23699e-14 0 0)
(1.5632e-13 0 0)
(9.94758e-14 0 0)
(7.81597e-14 0 0)
(-7.10583e-15 0 0)
(-2.06057e-13 0 0)
(-2.3448e-13 0 0)
(-3.90798e-13 0 0)
(-2.84218e-13 0 0)
(-2.84216e-13 0 0)
(-1.13687e-13 0 0)
(-4.97375e-14 0 0)
(1.13686e-13 0 0)
(1.5632e-13 0 0)
(2.98427e-13 0 0)
(4.12116e-13 0 0)
(6.11065e-13 0 0)
(3.1264e-13 0 0)
(1.77635e-13 0 0)
(-4.26322e-14 0 0)
(1.42105e-14 0 0)
(-4.26326e-14 0 0)
(-3.76587e-13 0 0)
(-6.75016e-13 0 0)
(-8.95283e-13 0 0)
(-9.30811e-13 0 0)
(-1.10845e-12 0 0)
(-9.66339e-13 0 0)
(-9.66338e-13 0 0)
(-7.81597e-13 0 0)
(-8.2423e-13 0 0)
(-7.88703e-13 0 0)
(-7.24753e-13 0 0)
(-7.67387e-13 0 0)
(-6.18172e-13 0 0)
(-4.90275e-13 0 0)
(-2.27373e-13 0 0)
(-3.62378e-13 0 0)
(-2.70006e-13 0 0)
(-4.97381e-14 0 0)
(6.39488e-14 0 0)
(2.98428e-13 0 0)
(1.84741e-13 0 0)
(9.94763e-14 0 0)
(2.4869e-13 0 0)
(2.62901e-13 0 0)
(3.19744e-13 0 0)
(5.18696e-13 0 0)
(4.47642e-13 0 0)
(4.40536e-13 0 0)
(4.1922e-13 0 0)
(6.537e-13 0 0)
(5.61329e-13 0 0)
(5.61329e-13 0 0)
(6.67911e-13 0 0)
(4.76063e-13 0 0)
(3.33956e-13 0 0)
(5.89749e-13 0 0)
(3.83694e-13 0 0)
(4.05008e-13 0 0)
(2.62902e-13 0 0)
(3.5527e-13 0 0)
(7.81604e-14 0 0)
(-1.06582e-13 0 0)
(-3.62376e-13 0 0)
(-3.2685e-13 0 0)
(-2.4869e-13 0 0)
(-3.4106e-13 0 0)
(-5.68433e-14 0 0)
(1.27898e-13 0 0)
(3.83693e-13 0 0)
(9.59233e-13 0 0)
(1.42109e-12 0 0)
(1.91136e-12 0 0)
(2.40874e-12 0 0)
(3.2756e-12 0 0)
(4.38405e-12 0 0)
(5.57776e-12 0 0)
(7.7307e-12 0 0)
(1.04521e-11 0 0)
(1.49853e-11 0 0)
(2.21405e-11 0 0)
(3.33174e-11 0 0)
(5.05551e-11 0 0)
(7.74776e-11 0 0)
(1.18497e-10 0 0)
(1.81764e-10 0 0)
(2.77922e-10 0 0)
(4.24137e-10 0 0)
(6.45457e-10 0 0)
(9.79334e-10 0 0)
(1.48101e-09 0 0)
(2.23268e-09 0 0)
(3.3551e-09 0 0)
(5.02508e-09 0 0)
(7.5009e-09 0 0)
(1.11586e-08 0 0)
(1.65445e-08 0 0)
(2.44464e-08 0 0)
(3.59995e-08 0 0)
(5.28312e-08 0 0)
(7.72653e-08 0 0)
(1.12609e-07 0 0)
(1.63548e-07 0 0)
(2.367e-07 0 0)
(3.41364e-07 0 0)
(4.90567e-07 0 0)
(7.02472e-07 0 0)
(1.00231e-06 0 0)
(1.42499e-06 0 0)
(2.01857e-06 0 0)
(2.84899e-06 0 0)
(4.00632e-06 0 0)
(5.61304e-06 0 0)
(7.835e-06 0 0)
(1.08958e-05 0 0)
(1.50955e-05 0 0)
(2.08352e-05 0 0)
(2.86483e-05 0 0)
(3.92411e-05 0 0)
(5.35446e-05 0 0)
(7.278e-05 0 0)
(9.85418e-05 0 0)
(0.000132902 0 0)
(0.00017854 0 0)
(0.000238904 0 0)
(0.000318408 0 0)
(0.000422676 0 0)
(0.000558836 0 0)
(0.000735877 0 0)
(0.000965071 0 0)
(0.00126048 0 0)
(0.00163956 0 0)
(0.00212385 0 0)
(0.00273977 0 0)
(0.00351956 0 0)
(0.00450233 0 0)
(0.00573525 0 0)
(0.00727485 0 0)
(0.00918848 0 0)
(0.0115559 0 0)
(0.0144708 0 0)
(0.0180429 0 0)
(0.0223993 0 0)
(0.0276868 0 0)
(0.0340734 0 0)
(0.0417499 0 0)
(0.0509319 0 0)
(0.0618608 0 0)
(0.0748047 0 0)
(0.0900595 0 0)
(0.107949 0 0)
(0.128824 0 0)
(0.153062 0 0)
(0.181065 0 0)
(0.213259 0 0)
(0.250088 0 0)
(0.292014 0 0)
(0.339507 0 0)
(0.393048 0 0)
(0.453117 0 0)
(0.520189 0 0)
(0.594729 0 0)
(0.677187 0 0)
(0.767988 0 0)
(0.867527 0 0)
(0.976166 0 0)
(1.09423 0 0)
(1.22199 0 0)
(1.35968 0 0)
(1.50748 0 0)
(1.66552 0 0)
(1.83387 0 0)
(2.01254 0 0)
(2.2015 0 0)
(2.40067 0 0)
(2.60991 0 0)
(2.82903 0 0)
(3.05781 0 0)
(3.29598 0 0)
(3.54325 0 0)
(3.79928 0 0)
(4.06371 0 0)
(4.33617 0 0)
(4.61627 0 0)
(4.90359 0 0)
(5.19772 0 0)
(5.49824 0 0)
(5.80474 0 0)
(6.1168 0 0)
(6.43402 0 0)
(6.75598 0 0)
(7.08232 0 0)
(7.41264 0 0)
(7.7466 0 0)
(8.08384 0 0)
(8.42405 0 0)
(8.76692 0 0)
(9.11216 0 0)
(9.4595 0 0)
(9.80868 0 0)
(10.1595 0 0)
(10.5117 0 0)
(10.8651 0 0)
(11.2196 0 0)
(11.5749 0 0)
(11.9309 0 0)
(12.2876 0 0)
(12.6447 0 0)
(13.0022 0 0)
(13.3599 0 0)
(13.7179 0 0)
(14.076 0 0)
(14.4342 0 0)
(14.7924 0 0)
(15.1506 0 0)
(15.5087 0 0)
(15.8667 0 0)
(16.2247 0 0)
(16.5825 0 0)
(16.9401 0 0)
(17.2976 0 0)
(17.6549 0 0)
(18.0121 0 0)
(18.3691 0 0)
(18.7259 0 0)
(19.0826 0 0)
(19.4391 0 0)
(19.7954 0 0)
(20.1516 0 0)
(20.5077 0 0)
(20.8636 0 0)
(21.2194 0 0)
(21.575 0 0)
(21.9306 0 0)
(22.286 0 0)
(22.6414 0 0)
(22.9967 0 0)
(23.3519 0 0)
(23.7071 0 0)
(24.0622 0 0)
(24.4173 0 0)
(24.7723 0 0)
(25.1274 0 0)
(25.4824 0 0)
(25.8374 0 0)
(26.1925 0 0)
(26.5476 0 0)
(26.9027 0 0)
(27.2578 0 0)
(27.613 0 0)
(27.9683 0 0)
(28.3236 0 0)
(28.679 0 0)
(29.0345 0 0)
(29.39 0 0)
(29.7457 0 0)
(30.1015 0 0)
(30.4574 0 0)
(30.8134 0 0)
(31.1695 0 0)
(31.5258 0 0)
(31.8822 0 0)
(32.2388 0 0)
(32.5955 0 0)
(32.9523 0 0)
(33.3093 0 0)
(33.6665 0 0)
(34.0239 0 0)
(34.3814 0 0)
(34.7391 0 0)
(35.097 0 0)
(35.455 0 0)
(35.8133 0 0)
(36.1718 0 0)
(36.5304 0 0)
(36.8892 0 0)
(37.2483 0 0)
(37.6075 0 0)
(37.967 0 0)
(38.3267 0 0)
(38.6866 0 0)
(39.0467 0 0)
(39.407 0 0)
(39.7676 0 0)
(40.1283 0 0)
(40.4894 0 0)
(40.8506 0 0)
(41.2121 0 0)
(41.5738 0 0)
(41.9358 0 0)
(42.2981 0 0)
(42.6606 0 0)
(43.0233 0 0)
(43.3863 0 0)
(43.7496 0 0)
(44.1132 0 0)
(44.4771 0 0)
(44.8412 0 0)
(45.2057 0 0)
(45.5704 0 0)
(45.9355 0 0)
(46.3009 0 0)
(46.6666 0 0)
(47.0326 0 0)
(47.3989 0 0)
(47.7656 0 0)
(48.1327 0 0)
(48.5001 0 0)
(48.8678 0 0)
(49.236 0 0)
(49.6045 0 0)
(49.9734 0 0)
(50.3426 0 0)
(50.7123 0 0)
(51.0824 0 0)
(51.4529 0 0)
(51.8238 0 0)
(52.1951 0 0)
(52.5669 0 0)
(52.9391 0 0)
(53.3117 0 0)
(53.6849 0 0)
(54.0584 0 0)
(54.4325 0 0)
(54.807 0 0)
(55.182 0 0)
(55.5574 0 0)
(55.9334 0 0)
(56.3099 0 0)
(56.6869 0 0)
(57.0643 0 0)
(57.4424 0 0)
(57.8209 0 0)
(58.2 0 0)
(58.5796 0 0)
(58.9598 0 0)
(59.3405 0 0)
(59.7218 0 0)
(60.1036 0 0)
(60.4861 0 0)
(60.8691 0 0)
(61.2527 0 0)
(61.6369 0 0)
(62.0217 0 0)
(62.4072 0 0)
(62.7932 0 0)
(63.1799 0 0)
(63.5673 0 0)
(63.9553 0 0)
(64.3439 0 0)
(64.7332 0 0)
(65.1232 0 0)
(65.5139 0 0)
(65.9052 0 0)
(66.2973 0 0)
(66.6901 0 0)
(67.0836 0 0)
(67.4778 0 0)
(67.8728 0 0)
(68.2686 0 0)
(68.6651 0 0)
(69.0623 0 0)
(69.4604 0 0)
(69.8593 0 0)
(70.259 0 0)
(70.6595 0 0)
(71.0608 0 0)
(71.463 0 0)
(71.866 0 0)
(72.2699 0 0)
(72.6747 0 0)
(73.0804 0 0)
(73.487 0 0)
(73.8945 0 0)
(74.3029 0 0)
(74.7123 0 0)
(75.1227 0 0)
(75.534 0 0)
(75.9463 0 0)
(76.3596 0 0)
(76.7739 0 0)
(77.1892 0 0)
(77.6057 0 0)
(78.023 0 0)
(78.4418 0 0)
(78.861 0 0)
(79.2824 0 0)
(79.7033 0 0)
(80.1276 0 0)
(80.5498 0 0)
(80.9778 0 0)
(81.4006 0 0)
(81.8332 0 0)
(82.2558 0 0)
(82.694 0 0)
(83.1155 0 0)
(83.5604 0 0)
(83.98 0 0)
(84.4321 0 0)
(84.85 0 0)
(85.3087 0 0)
(85.7263 0 0)
(86.1899 0 0)
(86.6094 0 0)
(87.076 0 0)
(87.4993 0 0)
(87.967 0 0)
(88.396 0 0)
(88.8635 0 0)
(89.2996 0 0)
(89.7657 0 0)
(90.2109 0 0)
(90.6729 0 0)
(91.1314 0 0)
(91.5841 0 0)
(92.0625 0 0)
(92.4984 0 0)
(93.0051 0 0)
(93.4159 0 0)
(93.9589 0 0)
(94.3386 0 0)
(94.9218 0 0)
(95.2696 0 0)
(95.8894 0 0)
(96.2144 0 0)
(96.856 0 0)
(97.178 0 0)
(97.825 0 0)
(98.1525 0 0)
(98.8058 0 0)
(99.1349 0 0)
(99.7952 0 0)
(100.128 0 0)
(100.795 0 0)
(101.131 0 0)
(101.805 0 0)
(102.145 0 0)
(102.826 0 0)
(103.169 0 0)
(103.858 0 0)
(104.206 0 0)
(104.902 0 0)
(105.254 0 0)
(105.959 0 0)
(106.316 0 0)
(107.029 0 0)
(107.39 0 0)
(108.114 0 0)
(108.479 0 0)
(109.212 0 0)
(109.583 0 0)
(110.327 0 0)
(110.703 0 0)
(111.457 0 0)
(111.84 0 0)
(112.605 0 0)
(112.995 0 0)
(113.769 0 0)
(114.174 0 0)
(114.945 0 0)
(115.377 0 0)
(116.141 0 0)
(116.601 0 0)
(117.36 0 0)
(117.847 0 0)
(118.601 0 0)
(119.119 0 0)
(119.869 0 0)
(120.416 0 0)
(121.165 0 0)
(121.741 0 0)
(122.49 0 0)
(123.097 0 0)
(123.848 0 0)
(124.486 0 0)
(125.241 0 0)
(125.91 0 0)
(126.674 0 0)
(127.372 0 0)
(128.15 0 0)
(128.876 0 0)
(129.673 0 0)
(130.426 0 0)
(131.246 0 0)
(132.026 0 0)
(132.875 0 0)
(133.682 0 0)
(134.561 0 0)
(135.395 0 0)
(136.303 0 0)
(137.165 0 0)
(138.098 0 0)
(138.983 0 0)
(139.931 0 0)
(140.826 0 0)
(141.769 0 0)
(142.643 0 0)
(143.541 0 0)
(144.325 0 0)
(145.11 0 0)
(145.784 0 0)
(146.475 0 0)
(147.079 0 0)
(147.727 0 0)
(148.314 0 0)
(148.96 0 0)
(149.56 0 0)
(150.224 0 0)
(150.846 0 0)
(151.525 0 0)
(152.162 0 0)
(152.848 0 0)
(153.488 0 0)
(154.17 0 0)
(154.806 0 0)
(155.479 0 0)
(156.107 0 0)
(156.771 0 0)
(157.395 0 0)
(158.052 0 0)
(158.674 0 0)
(159.324 0 0)
(159.946 0 0)
(160.589 0 0)
(161.209 0 0)
(161.844 0 0)
(162.46 0 0)
(163.089 0 0)
(163.695 0 0)
(164.32 0 0)
(164.915 0 0)
(165.54 0 0)
(166.122 0 0)
(166.746 0 0)
(167.32 0 0)
(167.937 0 0)
(168.506 0 0)
(169.112 0 0)
(169.678 0 0)
(170.268 0 0)
(170.829 0 0)
(171.403 0 0)
(171.955 0 0)
(172.513 0 0)
(173.055 0 0)
(173.598 0 0)
(174.129 0 0)
(174.659 0 0)
(175.178 0 0)
(175.696 0 0)
(176.203 0 0)
(176.711 0 0)
(177.203 0 0)
(177.702 0 0)
(178.178 0 0)
(178.665 0 0)
(179.125 0 0)
(179.592 0 0)
(180.033 0 0)
(180.471 0 0)
(180.893 0 0)
(181.297 0 0)
(181.695 0 0)
(182.055 0 0)
(182.413 0 0)
(182.727 0 0)
(183.038 0 0)
(183.301 0 0)
(183.558 0 0)
(183.757 0 0)
(183.943 0 0)
(184.075 0 0)
(184.18 0 0)
(184.257 0 0)
(184.275 0 0)
(184.281 0 0)
(184.312 0 0)
(184.305 0 0)
(184.246 0 0)
(184.094 0 0)
(183.755 0 0)
(183.429 0 0)
(182.701 0 0)
(182.121 0 0)
(180.898 0 0)
(180.014 0 0)
(178.158 0 0)
(176.877 0 0)
(174.203 0 0)
(172.475 0 0)
(168.898 0 0)
(166.647 0 0)
(161.961 0 0)
(159.763 0 0)
(155.396 0 0)
(155.383 0 0)
)
;

boundaryField
{
    sideLeft
    {
        type            symmetryPlane;
    }
    sideRight
    {
        type            myWaveTransmissive;
        phi             phi.air;
        rho             rho.air;
        psi             thermo:psi.air;
        gamma           1.4;
        fieldInf        (0 0 0);
        lInf            10;
        value           uniform (154.873 0 0);
    }
    topbottom
    {
        type            empty;
    }
    frontback
    {
        type            empty;
    }
}


// ************************************************************************* //
