/*--------------------------------*- C++ -*----------------------------------*\
| =========                 |                                                 |
| \\      /  F ield         | OpenFOAM: The Open Source CFD Toolbox           |
|  \\    /   O peration     | Version:  2.4.0                                 |
|   \\  /    A nd           | Web:      www.OpenFOAM.org                      |
|    \\/     M anipulation  |                                                 |
\*---------------------------------------------------------------------------*/
FoamFile
{
    version     2.0;
    format      ascii;
    class       volVectorField;
    location    "0.14";
    object      U.water;
}
// * * * * * * * * * * * * * * * * * * * * * * * * * * * * * * * * * * * * * //

dimensions      [0 1 -1 0 0 0 0];

internalField   nonuniform List<vector> 
1000
(
(-1.13685e-13 0 0)
(-1.42109e-13 0 0)
(-4.05009e-13 0 0)
(-4.54748e-13 0 0)
(-5.82644e-13 0 0)
(-4.40537e-13 0 0)
(-3.69482e-13 0 0)
(-5.04485e-13 0 0)
(-6.60805e-13 0 0)
(-6.96332e-13 0 0)
(-6.39489e-13 0 0)
(-7.31859e-13 0 0)
(-6.89227e-13 0 0)
(-7.53174e-13 0 0)
(-5.25802e-13 0 0)
(-5.18696e-13 0 0)
(-4.61853e-13 0 0)
(-4.05009e-13 0 0)
(-1.49215e-13 0 0)
(-3.05532e-13 0 0)
(-2.62902e-13 0 0)
(-4.12114e-13 0 0)
(-5.82646e-13 0 0)
(-5.25801e-13 0 0)
(-4.40536e-13 0 0)
(-6.39489e-13 0 0)
(-9.73443e-13 0 0)
(-9.66339e-13 0 0)
(-8.10018e-13 0 0)
(-8.66863e-13 0 0)
(-9.52127e-13 0 0)
(-9.09495e-13 0 0)
(-6.18172e-13 0 0)
(-6.75015e-13 0 0)
(-9.09496e-13 0 0)
(-1.11555e-12 0 0)
(-1.03029e-12 0 0)
(-1.14397e-12 0 0)
(-1.3074e-12 0 0)
(-1.22213e-12 0 0)
(-1.21503e-12 0 0)
(-1.30029e-12 0 0)
(-1.1724e-12 0 0)
(-8.45545e-13 0 0)
(-7.03438e-13 0 0)
(-7.74492e-13 0 0)
(-7.53175e-13 0 0)
(-6.11067e-13 0 0)
(-6.25278e-13 0 0)
(-6.60805e-13 0 0)
(-4.9738e-13 0 0)
(-3.62377e-13 0 0)
(-3.97904e-13 0 0)
(-1.91847e-13 0 0)
(-2.06057e-13 0 0)
(-1.06582e-13 0 0)
(2.13163e-13 0 0)
(1.42108e-13 0 0)
(2.4869e-13 0 0)
(2.91322e-13 0 0)
(2.98429e-13 0 0)
(6.60804e-13 0 0)
(8.88179e-13 0 0)
(1.08713e-12 0 0)
(1.28608e-12 0 0)
(1.0516e-12 0 0)
(7.31859e-13 0 0)
(6.53699e-13 0 0)
(6.82121e-13 0 0)
(8.02913e-13 0 0)
(6.60805e-13 0 0)
(5.32907e-13 0 0)
(3.12639e-13 0 0)
(1.42108e-13 0 0)
(1.27898e-13 0 0)
(4.26329e-14 0 0)
(2.84212e-14 0 0)
(-1.42106e-14 0 0)
(-7.10541e-14 0 0)
(-4.26328e-14 0 0)
(1.06582e-13 0 0)
(1.77635e-13 0 0)
(1.70531e-13 0 0)
(-7.81604e-14 0 0)
(-1.98951e-13 0 0)
(2.34479e-13 0 0)
(2.20269e-13 0 0)
(9.23701e-14 0 0)
(-2.62901e-13 0 0)
(-4.05009e-13 0 0)
(-6.46594e-13 0 0)
(-7.17648e-13 0 0)
(-8.95284e-13 0 0)
(-1.10134e-12 0 0)
(-9.59232e-13 0 0)
(-9.59234e-13 0 0)
(-8.5265e-13 0 0)
(-8.31336e-13 0 0)
(-1.07292e-12 0 0)
(-9.73444e-13 0 0)
(-9.09494e-13 0 0)
(-8.2423e-13 0 0)
(-9.23705e-13 0 0)
(-7.88703e-13 0 0)
(-8.52651e-13 0 0)
(-8.81073e-13 0 0)
(-8.38441e-13 0 0)
(-8.10019e-13 0 0)
(-6.46593e-13 0 0)
(-6.11067e-13 0 0)
(-4.47641e-13 0 0)
(-1.77636e-13 0 0)
(-1.27897e-13 0 0)
(-1.06582e-13 0 0)
(4.97382e-14 0 0)
(1.98952e-13 0 0)
(7.81597e-14 0 0)
(2.13162e-14 0 0)
(-4.97383e-14 0 0)
(-1.27897e-13 0 0)
(2.41584e-13 0 0)
(2.98428e-13 0 0)
(3.62376e-13 0 0)
(2.84223e-14 0 0)
(1.13686e-13 0 0)
(3.55272e-13 0 0)
(7.03437e-13 0 0)
(8.17125e-13 0 0)
(9.66337e-13 0 0)
(6.67911e-13 0 0)
(6.53698e-13 0 0)
(7.03438e-13 0 0)
(7.38964e-13 0 0)
(6.60805e-13 0 0)
(3.26849e-13 0 0)
(7.10547e-14 0 0)
(-1.42109e-13 0 0)
(-9.23706e-14 0 0)
(-4.26327e-14 0 0)
(1.42108e-14 0 0)
(2.27374e-13 0 0)
(1.98951e-13 0 0)
(3.55278e-14 0 0)
(3.97903e-13 0 0)
(4.47643e-13 0 0)
(5.32906e-13 0 0)
(5.89751e-13 0 0)
(7.4607e-13 0 0)
(5.82645e-13 0 0)
(5.04485e-13 0 0)
(4.61853e-13 0 0)
(4.83169e-13 0 0)
(8.52651e-13 0 0)
(1.03739e-12 0 0)
(1.08713e-12 0 0)
(1.37845e-12 0 0)
(1.41398e-12 0 0)
(1.42819e-12 0 0)
(1.22213e-12 0 0)
(1.33582e-12 0 0)
(1.22213e-12 0 0)
(1.48503e-12 0 0)
(1.48503e-12 0 0)
(1.34293e-12 0 0)
(1.39266e-12 0 0)
(1.50635e-12 0 0)
(1.37845e-12 0 0)
(1.39977e-12 0 0)
(1.16529e-12 0 0)
(1.12266e-12 0 0)
(1.20082e-12 0 0)
(1.0516e-12 0 0)
(1.22213e-12 0 0)
(1.22213e-12 0 0)
(1.24345e-12 0 0)
(1.23634e-12 0 0)
(1.02318e-12 0 0)
(1.12976e-12 0 0)
(8.52652e-13 0 0)
(8.52651e-13 0 0)
(6.89226e-13 0 0)
(7.31859e-13 0 0)
(6.96331e-13 0 0)
(5.04486e-13 0 0)
(4.61852e-13 0 0)
(1.13688e-13 0 0)
(3.12638e-13 0 0)
(1.98954e-13 0 0)
(3.69481e-13 0 0)
(2.06059e-13 0 0)
(2.1315e-14 0 0)
(-2.84216e-13 0 0)
(-2.3448e-13 0 0)
(-3.26849e-13 0 0)
(-1.35004e-13 0 0)
(-2.70006e-13 0 0)
(-1.84741e-13 0 0)
(-2.34479e-13 0 0)
(-7.10547e-14 0 0)
(4.97384e-14 0 0)
(1.42101e-14 0 0)
(4.97392e-14 0 0)
(5.25801e-13 0 0)
(5.32908e-13 0 0)
(5.40012e-13 0 0)
(4.40537e-13 0 0)
(5.54223e-13 0 0)
(5.96856e-13 0 0)
(5.68434e-13 0 0)
(3.19744e-13 0 0)
(9.23706e-14 0 0)
(2.13159e-14 0 0)
(1.20793e-13 0 0)
(4.97374e-14 0 0)
(-2.06057e-13 0 0)
(4.2632e-14 0 0)
(4.26329e-14 0 0)
(2.62901e-13 0 0)
(2.55795e-13 0 0)
(4.9738e-14 0 0)
(-7.10562e-15 0 0)
(-1.77635e-13 0 0)
(-1.35003e-13 0 0)
(-2.13163e-14 0 0)
(1.13687e-13 0 0)
(4.47642e-13 0 0)
(5.54223e-13 0 0)
(4.26326e-13 0 0)
(3.97904e-13 0 0)
(4.76064e-13 0 0)
(3.12639e-13 0 0)
(3.97904e-13 0 0)
(3.83694e-13 0 0)
(4.61852e-13 0 0)
(4.33432e-13 0 0)
(6.60804e-13 0 0)
(3.83694e-13 0 0)
(2.629e-13 0 0)
(1.42109e-13 0 0)
(2.13162e-14 0 0)
(1.75273e-19 0 0)
(-1.42114e-14 0 0)
(1.35004e-13 0 0)
(2.41584e-13 0 0)
(1.5632e-13 0 0)
(2.13163e-13 0 0)
(3.05533e-13 0 0)
(2.91322e-13 0 0)
(2.98428e-13 0 0)
(3.48166e-13 0 0)
(3.2685e-13 0 0)
(3.19744e-13 0 0)
(1.63425e-13 0 0)
(4.68959e-13 0 0)
(7.38964e-13 0 0)
(5.32908e-13 0 0)
(6.8212e-13 0 0)
(7.53176e-13 0 0)
(9.166e-13 0 0)
(6.82122e-13 0 0)
(9.02388e-13 0 0)
(8.2423e-13 0 0)
(8.17124e-13 0 0)
(9.73443e-13 0 0)
(6.60805e-13 0 0)
(4.68957e-13 0 0)
(1.4211e-13 0 0)
(2.27372e-13 0 0)
(1.42121e-14 0 0)
(2.13162e-13 0 0)
(-7.10443e-15 0 0)
(2.27373e-13 0 0)
(5.11591e-13 0 0)
(5.18696e-13 0 0)
(3.90799e-13 0 0)
(1.13686e-13 0 0)
(-1.35002e-13 0 0)
(-1.35004e-13 0 0)
(-3.33954e-13 0 0)
(-2.84218e-13 0 0)
(-3.05533e-13 0 0)
(-2.55795e-13 0 0)
(1.13686e-13 0 0)
(4.68959e-13 0 0)
(7.53174e-13 0 0)
(9.16601e-13 0 0)
(8.81073e-13 0 0)
(6.46594e-13 0 0)
(4.90274e-13 0 0)
(3.12639e-13 0 0)
(5.18696e-13 0 0)
(9.45022e-13 0 0)
(1.27187e-12 0 0)
(1.1724e-12 0 0)
(1.18661e-12 0 0)
(1.0516e-12 0 0)
(9.30811e-13 0 0)
(7.31859e-13 0 0)
(6.96331e-13 0 0)
(6.75016e-13 0 0)
(7.10542e-13 0 0)
(5.40013e-13 0 0)
(5.61329e-13 0 0)
(9.23704e-14 0 0)
(-2.13162e-13 0 0)
(-2.84218e-13 0 0)
(-1.91846e-13 0 0)
(-4.9738e-14 0 0)
(-4.26327e-14 0 0)
(-2.41584e-13 0 0)
(-3.2685e-13 0 0)
(-3.69482e-13 0 0)
(-4.26326e-13 0 0)
(-2.98428e-13 0 0)
(-1.42113e-14 0 0)
(-4.97378e-14 0 0)
(1.27897e-13 0 0)
(2.4869e-13 0 0)
(1.70531e-13 0 0)
(-1.13687e-13 0 0)
(-2.77112e-13 0 0)
(-1.7053e-13 0 0)
(-7.10546e-14 0 0)
(-1.84741e-13 0 0)
(-1.42114e-14 0 0)
(-2.55795e-13 0 0)
(-5.04485e-13 0 0)
(-2.4869e-13 0 0)
(-2.91322e-13 0 0)
(-1.35003e-13 0 0)
(-5.68435e-14 0 0)
(-1.20793e-13 0 0)
(-2.41584e-13 0 0)
(-1.13688e-13 0 0)
(-2.629e-13 0 0)
(-3.1264e-13 0 0)
(-3.97903e-13 0 0)
(-2.06057e-13 0 0)
(-1.91847e-13 0 0)
(-8.5265e-14 0 0)
(7.81594e-14 0 0)
(1.27898e-13 0 0)
(1.77635e-13 0 0)
(4.19221e-13 0 0)
(4.61852e-13 0 0)
(2.62902e-13 0 0)
(4.90273e-13 0 0)
(4.47643e-13 0 0)
(4.68958e-13 0 0)
(4.26326e-13 0 0)
(7.24753e-13 0 0)
(5.54224e-13 0 0)
(2.4869e-13 0 0)
(2.84225e-14 0 0)
(4.26319e-14 0 0)
(5.68437e-14 0 0)
(3.83693e-13 0 0)
(1.84741e-13 0 0)
(3.05533e-13 0 0)
(3.33955e-13 0 0)
(3.41061e-13 0 0)
(7.81596e-14 0 0)
(2.13166e-14 0 0)
(2.27374e-13 0 0)
(3.12639e-13 0 0)
(5.54223e-13 0 0)
(3.41061e-13 0 0)
(3.19744e-13 0 0)
(3.62377e-13 0 0)
(1.7053e-13 0 0)
(-1.06581e-13 0 0)
(1.27897e-13 0 0)
(1.77636e-13 0 0)
(7.10513e-15 0 0)
(5.83883e-19 0 0)
(9.23699e-14 0 0)
(9.23712e-14 0 0)
(1.42108e-13 0 0)
(2.27375e-13 0 0)
(5.25801e-13 0 0)
(6.89227e-13 0 0)
(7.74491e-13 0 0)
(4.26326e-13 0 0)
(2.4869e-13 0 0)
(5.6843e-14 0 0)
(-7.10532e-14 0 0)
(-3.55282e-14 0 0)
(8.52659e-14 0 0)
(9.94751e-14 0 0)
(2.3448e-13 0 0)
(1.77635e-13 0 0)
(-1.98952e-13 0 0)
(-1.27898e-13 0 0)
(-2.34478e-13 0 0)
(-2.20269e-13 0 0)
(-1.91846e-13 0 0)
(-2.06058e-13 0 0)
(-3.12638e-13 0 0)
(-1.5632e-13 0 0)
(-7.10511e-15 0 0)
(1.63425e-13 0 0)
(2.55795e-13 0 0)
(-3.55265e-14 0 0)
(4.97374e-14 0 0)
(1.13687e-13 0 0)
(1.13687e-13 0 0)
(7.10543e-14 0 0)
(-4.07428e-19 0 0)
(-2.20268e-13 0 0)
(-3.12639e-13 0 0)
(-3.90798e-13 0 0)
(-2.77113e-13 0 0)
(-3.12638e-13 0 0)
(-9.94765e-14 0 0)
(1.42113e-14 0 0)
(1.56319e-13 0 0)
(1.5632e-13 0 0)
(2.84216e-13 0 0)
(3.69484e-13 0 0)
(5.96855e-13 0 0)
(3.62378e-13 0 0)
(2.34479e-13 0 0)
(-4.26322e-14 0 0)
(-2.13166e-14 0 0)
(-4.26326e-14 0 0)
(-3.97904e-13 0 0)
(-6.96332e-13 0 0)
(-8.73967e-13 0 0)
(-9.30811e-13 0 0)
(-1.12266e-12 0 0)
(-9.73444e-13 0 0)
(-9.45022e-13 0 0)
(-8.02913e-13 0 0)
(-8.59757e-13 0 0)
(-7.95808e-13 0 0)
(-7.38964e-13 0 0)
(-6.96332e-13 0 0)
(-5.68434e-13 0 0)
(-5.40013e-13 0 0)
(-2.48689e-13 0 0)
(-3.48167e-13 0 0)
(-2.70006e-13 0 0)
(-4.26327e-14 0 0)
(1.06581e-13 0 0)
(2.70006e-13 0 0)
(1.84741e-13 0 0)
(1.27898e-13 0 0)
(2.91322e-13 0 0)
(2.27374e-13 0 0)
(2.27374e-13 0 0)
(5.68434e-13 0 0)
(5.04486e-13 0 0)
(3.62376e-13 0 0)
(3.62377e-13 0 0)
(6.32383e-13 0 0)
(5.96856e-13 0 0)
(6.25277e-13 0 0)
(6.537e-13 0 0)
(4.90274e-13 0 0)
(3.33956e-13 0 0)
(5.89749e-13 0 0)
(3.908e-13 0 0)
(4.12114e-13 0 0)
(2.91324e-13 0 0)
(3.90798e-13 0 0)
(1.06582e-13 0 0)
(-1.06582e-13 0 0)
(-3.90798e-13 0 0)
(-3.62377e-13 0 0)
(-2.98428e-13 0 0)
(-3.4106e-13 0 0)
(-1.42108e-14 0 0)
(9.23704e-14 0 0)
(3.48166e-13 0 0)
(1.00897e-12 0 0)
(1.4353e-12 0 0)
(1.86873e-12 0 0)
(2.40874e-12 0 0)
(3.29692e-12 0 0)
(4.39115e-12 0 0)
(5.54934e-12 0 0)
(7.68807e-12 0 0)
(1.04166e-11 0 0)
(1.49853e-11 0 0)
(2.2105e-11 0 0)
(3.31823e-11 0 0)
(5.03775e-11 0 0)
(7.72431e-11 0 0)
(1.18114e-10 0 0)
(1.81188e-10 0 0)
(2.77034e-10 0 0)
(4.22808e-10 0 0)
(6.43517e-10 0 0)
(9.76485e-10 0 0)
(1.47671e-09 0 0)
(2.22617e-09 0 0)
(3.34551e-09 0 0)
(5.01105e-09 0 0)
(7.48032e-09 0 0)
(1.11285e-08 0 0)
(1.65005e-08 0 0)
(2.43828e-08 0 0)
(3.59077e-08 0 0)
(5.26988e-08 0 0)
(7.70754e-08 0 0)
(1.12337e-07 0 0)
(1.63162e-07 0 0)
(2.36152e-07 0 0)
(3.4059e-07 0 0)
(4.89476e-07 0 0)
(7.00943e-07 0 0)
(1.00018e-06 0 0)
(1.42202e-06 0 0)
(2.01445e-06 0 0)
(2.84331e-06 0 0)
(3.99851e-06 0 0)
(5.60235e-06 0 0)
(7.82042e-06 0 0)
(1.0876e-05 0 0)
(1.50688e-05 0 0)
(2.07992e-05 0 0)
(2.86e-05 0 0)
(3.91767e-05 0 0)
(5.34589e-05 0 0)
(7.26666e-05 0 0)
(9.83925e-05 0 0)
(0.000132706 0 0)
(0.000178284 0 0)
(0.000238571 0 0)
(0.000317978 0 0)
(0.000422122 0 0)
(0.000558126 0 0)
(0.000734971 0 0)
(0.000963921 0 0)
(0.00125903 0 0)
(0.00163774 0 0)
(0.00212156 0 0)
(0.00273692 0 0)
(0.00351603 0 0)
(0.00449798 0 0)
(0.00572992 0 0)
(0.00726834 0 0)
(0.00918058 0 0)
(0.0115463 0 0)
(0.0144594 0 0)
(0.0180292 0 0)
(0.0223831 0 0)
(0.0276677 0 0)
(0.0340509 0 0)
(0.0417237 0 0)
(0.0509015 0 0)
(0.0618257 0 0)
(0.0747645 0 0)
(0.0900137 0 0)
(0.107897 0 0)
(0.128765 0 0)
(0.152996 0 0)
(0.180993 0 0)
(0.213179 0 0)
(0.25 0 0)
(0.291918 0 0)
(0.339403 0 0)
(0.392936 0 0)
(0.452997 0 0)
(0.520061 0 0)
(0.594595 0 0)
(0.677047 0 0)
(0.767841 0 0)
(0.867375 0 0)
(0.97601 0 0)
(1.09407 0 0)
(1.22183 0 0)
(1.35952 0 0)
(1.50732 0 0)
(1.66536 0 0)
(1.83371 0 0)
(2.01238 0 0)
(2.20135 0 0)
(2.40052 0 0)
(2.60977 0 0)
(2.8289 0 0)
(3.05768 0 0)
(3.29587 0 0)
(3.54314 0 0)
(3.79918 0 0)
(4.06362 0 0)
(4.33609 0 0)
(4.61619 0 0)
(4.90352 0 0)
(5.19766 0 0)
(5.49819 0 0)
(5.8047 0 0)
(6.11677 0 0)
(6.43399 0 0)
(6.75597 0 0)
(7.08231 0 0)
(7.41264 0 0)
(7.7466 0 0)
(8.08385 0 0)
(8.42407 0 0)
(8.76694 0 0)
(9.11218 0 0)
(9.45952 0 0)
(9.80872 0 0)
(10.1595 0 0)
(10.5117 0 0)
(10.8652 0 0)
(11.2196 0 0)
(11.5749 0 0)
(11.931 0 0)
(12.2876 0 0)
(12.6447 0 0)
(13.0022 0 0)
(13.36 0 0)
(13.718 0 0)
(14.0761 0 0)
(14.4342 0 0)
(14.7925 0 0)
(15.1506 0 0)
(15.5088 0 0)
(15.8668 0 0)
(16.2247 0 0)
(16.5825 0 0)
(16.9402 0 0)
(17.2977 0 0)
(17.655 0 0)
(18.0122 0 0)
(18.3692 0 0)
(18.726 0 0)
(19.0826 0 0)
(19.4391 0 0)
(19.7955 0 0)
(20.1517 0 0)
(20.5077 0 0)
(20.8636 0 0)
(21.2194 0 0)
(21.5751 0 0)
(21.9306 0 0)
(22.2861 0 0)
(22.6414 0 0)
(22.9967 0 0)
(23.352 0 0)
(23.7071 0 0)
(24.0622 0 0)
(24.4173 0 0)
(24.7724 0 0)
(25.1274 0 0)
(25.4824 0 0)
(25.8375 0 0)
(26.1925 0 0)
(26.5476 0 0)
(26.9027 0 0)
(27.2578 0 0)
(27.613 0 0)
(27.9683 0 0)
(28.3236 0 0)
(28.679 0 0)
(29.0345 0 0)
(29.3901 0 0)
(29.7457 0 0)
(30.1015 0 0)
(30.4574 0 0)
(30.8134 0 0)
(31.1696 0 0)
(31.5258 0 0)
(31.8822 0 0)
(32.2388 0 0)
(32.5955 0 0)
(32.9523 0 0)
(33.3094 0 0)
(33.6665 0 0)
(34.0239 0 0)
(34.3814 0 0)
(34.7391 0 0)
(35.097 0 0)
(35.4551 0 0)
(35.8133 0 0)
(36.1718 0 0)
(36.5304 0 0)
(36.8893 0 0)
(37.2483 0 0)
(37.6076 0 0)
(37.967 0 0)
(38.3267 0 0)
(38.6866 0 0)
(39.0467 0 0)
(39.407 0 0)
(39.7676 0 0)
(40.1284 0 0)
(40.4894 0 0)
(40.8506 0 0)
(41.2121 0 0)
(41.5739 0 0)
(41.9359 0 0)
(42.2981 0 0)
(42.6606 0 0)
(43.0233 0 0)
(43.3864 0 0)
(43.7497 0 0)
(44.1133 0 0)
(44.4771 0 0)
(44.8413 0 0)
(45.2057 0 0)
(45.5705 0 0)
(45.9355 0 0)
(46.3009 0 0)
(46.6666 0 0)
(47.0326 0 0)
(47.399 0 0)
(47.7657 0 0)
(48.1327 0 0)
(48.5001 0 0)
(48.8679 0 0)
(49.236 0 0)
(49.6045 0 0)
(49.9734 0 0)
(50.3427 0 0)
(50.7123 0 0)
(51.0824 0 0)
(51.4529 0 0)
(51.8238 0 0)
(52.1951 0 0)
(52.5669 0 0)
(52.9391 0 0)
(53.3118 0 0)
(53.6849 0 0)
(54.0584 0 0)
(54.4325 0 0)
(54.807 0 0)
(55.182 0 0)
(55.5574 0 0)
(55.9334 0 0)
(56.3099 0 0)
(56.6869 0 0)
(57.0644 0 0)
(57.4424 0 0)
(57.8209 0 0)
(58.2 0 0)
(58.5796 0 0)
(58.9598 0 0)
(59.3405 0 0)
(59.7218 0 0)
(60.1037 0 0)
(60.4861 0 0)
(60.8691 0 0)
(61.2527 0 0)
(61.6369 0 0)
(62.0218 0 0)
(62.4072 0 0)
(62.7933 0 0)
(63.1799 0 0)
(63.5673 0 0)
(63.9553 0 0)
(64.3439 0 0)
(64.7332 0 0)
(65.1232 0 0)
(65.5139 0 0)
(65.9052 0 0)
(66.2973 0 0)
(66.6901 0 0)
(67.0836 0 0)
(67.4778 0 0)
(67.8728 0 0)
(68.2686 0 0)
(68.6651 0 0)
(69.0624 0 0)
(69.4604 0 0)
(69.8593 0 0)
(70.259 0 0)
(70.6595 0 0)
(71.0608 0 0)
(71.463 0 0)
(71.866 0 0)
(72.2699 0 0)
(72.6747 0 0)
(73.0804 0 0)
(73.487 0 0)
(73.8945 0 0)
(74.3029 0 0)
(74.7123 0 0)
(75.1227 0 0)
(75.534 0 0)
(75.9463 0 0)
(76.3596 0 0)
(76.7739 0 0)
(77.1892 0 0)
(77.6057 0 0)
(78.023 0 0)
(78.4418 0 0)
(78.861 0 0)
(79.2824 0 0)
(79.7033 0 0)
(80.1276 0 0)
(80.5498 0 0)
(80.9778 0 0)
(81.4007 0 0)
(81.8332 0 0)
(82.2558 0 0)
(82.694 0 0)
(83.1155 0 0)
(83.5604 0 0)
(83.98 0 0)
(84.4321 0 0)
(84.8501 0 0)
(85.3087 0 0)
(85.7263 0 0)
(86.1899 0 0)
(86.6094 0 0)
(87.076 0 0)
(87.4993 0 0)
(87.967 0 0)
(88.396 0 0)
(88.8635 0 0)
(89.2996 0 0)
(89.7657 0 0)
(90.2109 0 0)
(90.6729 0 0)
(91.1314 0 0)
(91.5841 0 0)
(92.0625 0 0)
(92.4984 0 0)
(93.0051 0 0)
(93.4159 0 0)
(93.959 0 0)
(94.3386 0 0)
(94.9218 0 0)
(95.2697 0 0)
(95.8894 0 0)
(96.2144 0 0)
(96.856 0 0)
(97.178 0 0)
(97.825 0 0)
(98.1525 0 0)
(98.8058 0 0)
(99.1349 0 0)
(99.7951 0 0)
(100.128 0 0)
(100.795 0 0)
(101.131 0 0)
(101.805 0 0)
(102.145 0 0)
(102.826 0 0)
(103.169 0 0)
(103.858 0 0)
(104.206 0 0)
(104.902 0 0)
(105.254 0 0)
(105.959 0 0)
(106.316 0 0)
(107.029 0 0)
(107.39 0 0)
(108.114 0 0)
(108.479 0 0)
(109.212 0 0)
(109.583 0 0)
(110.327 0 0)
(110.703 0 0)
(111.457 0 0)
(111.84 0 0)
(112.605 0 0)
(112.995 0 0)
(113.769 0 0)
(114.174 0 0)
(114.945 0 0)
(115.377 0 0)
(116.141 0 0)
(116.601 0 0)
(117.36 0 0)
(117.847 0 0)
(118.601 0 0)
(119.119 0 0)
(119.869 0 0)
(120.416 0 0)
(121.165 0 0)
(121.741 0 0)
(122.49 0 0)
(123.097 0 0)
(123.848 0 0)
(124.486 0 0)
(125.241 0 0)
(125.91 0 0)
(126.674 0 0)
(127.372 0 0)
(128.15 0 0)
(128.876 0 0)
(129.673 0 0)
(130.426 0 0)
(131.246 0 0)
(132.026 0 0)
(132.875 0 0)
(133.682 0 0)
(134.561 0 0)
(135.395 0 0)
(136.303 0 0)
(137.165 0 0)
(138.098 0 0)
(138.983 0 0)
(139.931 0 0)
(140.826 0 0)
(141.769 0 0)
(142.643 0 0)
(143.541 0 0)
(144.325 0 0)
(145.11 0 0)
(145.784 0 0)
(146.475 0 0)
(147.079 0 0)
(147.727 0 0)
(148.314 0 0)
(148.96 0 0)
(149.56 0 0)
(150.224 0 0)
(150.846 0 0)
(151.525 0 0)
(152.162 0 0)
(152.848 0 0)
(153.488 0 0)
(154.17 0 0)
(154.806 0 0)
(155.479 0 0)
(156.107 0 0)
(156.771 0 0)
(157.395 0 0)
(158.052 0 0)
(158.674 0 0)
(159.324 0 0)
(159.946 0 0)
(160.589 0 0)
(161.209 0 0)
(161.844 0 0)
(162.459 0 0)
(163.089 0 0)
(163.695 0 0)
(164.32 0 0)
(164.915 0 0)
(165.54 0 0)
(166.122 0 0)
(166.746 0 0)
(167.32 0 0)
(167.937 0 0)
(168.506 0 0)
(169.112 0 0)
(169.678 0 0)
(170.268 0 0)
(170.829 0 0)
(171.403 0 0)
(171.955 0 0)
(172.513 0 0)
(173.055 0 0)
(173.598 0 0)
(174.128 0 0)
(174.659 0 0)
(175.178 0 0)
(175.696 0 0)
(176.203 0 0)
(176.711 0 0)
(177.203 0 0)
(177.702 0 0)
(178.178 0 0)
(178.665 0 0)
(179.125 0 0)
(179.592 0 0)
(180.033 0 0)
(180.471 0 0)
(180.893 0 0)
(181.297 0 0)
(181.695 0 0)
(182.055 0 0)
(182.413 0 0)
(182.727 0 0)
(183.038 0 0)
(183.301 0 0)
(183.558 0 0)
(183.757 0 0)
(183.943 0 0)
(184.075 0 0)
(184.179 0 0)
(184.252 0 0)
(184.279 0 0)
(184.284 0 0)
(184.302 0 0)
(184.298 0 0)
(184.24 0 0)
(184.092 0 0)
(183.757 0 0)
(183.427 0 0)
(182.702 0 0)
(182.121 0 0)
(180.897 0 0)
(180.013 0 0)
(178.157 0 0)
(176.876 0 0)
(174.203 0 0)
(172.474 0 0)
(168.899 0 0)
(166.649 0 0)
(161.957 0 0)
(159.762 0 0)
(155.399 0 0)
(155.385 0 0)
)
;

boundaryField
{
    sideLeft
    {
        type            symmetryPlane;
    }
    sideRight
    {
        type            zeroGradient;
    }
    topbottom
    {
        type            empty;
    }
    frontback
    {
        type            empty;
    }
}


// ************************************************************************* //
