/*--------------------------------*- C++ -*----------------------------------*\
| =========                 |                                                 |
| \\      /  F ield         | OpenFOAM: The Open Source CFD Toolbox           |
|  \\    /   O peration     | Version:  2.4.0                                 |
|   \\  /    A nd           | Web:      www.OpenFOAM.org                      |
|    \\/     M anipulation  |                                                 |
\*---------------------------------------------------------------------------*/
FoamFile
{
    version     2.0;
    format      ascii;
    class       volVectorField;
    location    "0.14";
    object      U.waterMean;
}
// * * * * * * * * * * * * * * * * * * * * * * * * * * * * * * * * * * * * * //

dimensions      [0 1 -1 0 0 0 0];

internalField   nonuniform List<vector> 
1000
(
(-6.65365e-14 0 0)
(-3.63292e-14 0 0)
(-7.04349e-14 0 0)
(-3.4959e-14 0 0)
(-8.61681e-14 0 0)
(-2.46715e-14 0 0)
(-7.01303e-14 0 0)
(-5.65288e-14 0 0)
(-5.48082e-14 0 0)
(-4.75963e-14 0 0)
(-5.1758e-14 0 0)
(-8.59805e-14 0 0)
(-4.37292e-14 0 0)
(-9.65623e-14 0 0)
(-2.84373e-14 0 0)
(-7.12772e-14 0 0)
(-1.12675e-14 0 0)
(-3.99475e-14 0 0)
(9.86092e-15 0 0)
(-6.72574e-14 0 0)
(1.48295e-14 0 0)
(-6.20097e-14 0 0)
(-2.11998e-14 0 0)
(-6.15634e-14 0 0)
(-7.06938e-14 0 0)
(-6.18071e-14 0 0)
(-7.65406e-14 0 0)
(-5.3966e-14 0 0)
(-1.08139e-13 0 0)
(-3.98315e-14 0 0)
(-8.62901e-14 0 0)
(-7.86875e-14 0 0)
(-6.233e-14 0 0)
(-8.21842e-14 0 0)
(-3.62026e-14 0 0)
(-1.26131e-13 0 0)
(-2.9394e-15 0 0)
(-1.0352e-13 0 0)
(-3.84967e-14 0 0)
(-1.04541e-13 0 0)
(-5.84274e-14 0 0)
(-1.02323e-13 0 0)
(-8.05605e-14 0 0)
(-1.02699e-13 0 0)
(-6.77911e-14 0 0)
(-8.58792e-14 0 0)
(-9.24416e-14 0 0)
(-7.83526e-14 0 0)
(-8.74525e-14 0 0)
(-8.20019e-14 0 0)
(-9.5928e-14 0 0)
(-6.5223e-14 0 0)
(-7.00999e-14 0 0)
(-4.24805e-14 0 0)
(-4.77533e-14 0 0)
(-1.40232e-14 0 0)
(-3.35173e-14 0 0)
(-1.64238e-14 0 0)
(-5.11741e-14 0 0)
(-1.87839e-14 0 0)
(-6.36186e-14 0 0)
(2.25086e-14 0 0)
(-2.42294e-14 0 0)
(-2.45136e-14 0 0)
(1.19015e-14 0 0)
(-2.21779e-15 0 0)
(3.15987e-14 0 0)
(1.72357e-14 0 0)
(9.59247e-15 0 0)
(2.04786e-14 0 0)
(-8.75974e-15 0 0)
(5.61306e-15 0 0)
(-2.25848e-14 0 0)
(5.92773e-15 0 0)
(-6.79588e-15 0 0)
(-2.70562e-14 0 0)
(5.51142e-15 0 0)
(-2.64015e-14 0 0)
(-2.31992e-14 0 0)
(-6.08535e-15 0 0)
(-2.28643e-14 0 0)
(1.28709e-14 0 0)
(-5.33402e-15 0 0)
(3.71611e-14 0 0)
(-2.66654e-14 0 0)
(2.05141e-14 0 0)
(-1.76009e-14 0 0)
(1.64894e-14 0 0)
(-8.37929e-15 0 0)
(-1.65199e-14 0 0)
(1.61545e-14 0 0)
(-1.5225e-16 0 0)
(-5.5573e-15 0 0)
(5.45583e-15 0 0)
(-2.18947e-14 0 0)
(1.54995e-14 0 0)
(-5.9817e-14 0 0)
(2.65027e-14 0 0)
(-5.06715e-14 0 0)
(-2.9244e-14 0 0)
(-5.45949e-14 0 0)
(-2.60263e-14 0 0)
(-5.527e-14 0 0)
(-4.26631e-14 0 0)
(-6.27257e-14 0 0)
(-7.23838e-14 0 0)
(-4.39474e-14 0 0)
(-6.77757e-14 0 0)
(-9.77704e-14 0 0)
(-7.04505e-14 0 0)
(-1.15808e-13 0 0)
(-6.7918e-14 0 0)
(-9.93845e-14 0 0)
(-8.69706e-14 0 0)
(-1.01831e-13 0 0)
(-8.23011e-14 0 0)
(-6.08174e-14 0 0)
(-3.774e-14 0 0)
(-2.26258e-14 0 0)
(-5.95534e-14 0 0)
(-1.98463e-15 0 0)
(-3.17408e-14 0 0)
(2.34578e-14 0 0)
(-2.59295e-14 0 0)
(1.27541e-14 0 0)
(-4.13179e-14 0 0)
(9.43744e-16 0 0)
(-3.83538e-14 0 0)
(1.38044e-14 0 0)
(-6.40396e-14 0 0)
(1.42102e-14 0 0)
(-7.27286e-14 0 0)
(-1.83982e-14 0 0)
(-4.41398e-14 0 0)
(4.50155e-15 0 0)
(-2.43714e-14 0 0)
(-9.13558e-15 0 0)
(4.3191e-15 0 0)
(2.4813e-14 0 0)
(2.95637e-14 0 0)
(1.26325e-14 0 0)
(3.27152e-14 0 0)
(-1.65705e-14 0 0)
(2.72794e-14 0 0)
(-3.16645e-14 0 0)
(2.87919e-14 0 0)
(-5.9127e-15 0 0)
(-4.50177e-15 0 0)
(6.11565e-15 0 0)
(-1.46727e-14 0 0)
(-2.18949e-14 0 0)
(-4.21909e-14 0 0)
(-3.84505e-14 0 0)
(-2.68585e-14 0 0)
(-2.02556e-14 0 0)
(-4.89263e-15 0 0)
(-4.29979e-14 0 0)
(-2.0616e-14 0 0)
(-5.98682e-14 0 0)
(-3.67352e-14 0 0)
(-8.05447e-14 0 0)
(-6.47138e-15 0 0)
(-5.73811e-14 0 0)
(-2.01442e-14 0 0)
(-4.87988e-14 0 0)
(-2.00506e-15 0 0)
(-7.51447e-14 0 0)
(-1.39727e-14 0 0)
(-8.26106e-14 0 0)
(-6.81512e-14 0 0)
(-8.27427e-14 0 0)
(-7.31911e-14 0 0)
(-1.03369e-13 0 0)
(-6.99532e-14 0 0)
(-1.17798e-13 0 0)
(-8.287e-14 0 0)
(-1.4021e-13 0 0)
(-8.9072e-14 0 0)
(-1.55903e-13 0 0)
(-1.49087e-13 0 0)
(-1.42941e-13 0 0)
(-1.45215e-13 0 0)
(-1.18377e-13 0 0)
(-1.78188e-13 0 0)
(-1.03192e-13 0 0)
(-1.71961e-13 0 0)
(-9.02903e-14 0 0)
(-1.97363e-13 0 0)
(-6.13104e-14 0 0)
(-1.61227e-13 0 0)
(-6.26095e-14 0 0)
(-1.56725e-13 0 0)
(-7.16942e-14 0 0)
(-1.40941e-13 0 0)
(-1.02394e-13 0 0)
(-1.40505e-13 0 0)
(-1.13387e-13 0 0)
(-1.21716e-13 0 0)
(-9.48727e-14 0 0)
(-1.29907e-13 0 0)
(-8.94323e-14 0 0)
(-1.59714e-13 0 0)
(-7.10699e-14 0 0)
(-1.26365e-13 0 0)
(-1.05348e-13 0 0)
(-1.01141e-13 0 0)
(-6.00665e-14 0 0)
(-7.59011e-14 0 0)
(-8.45341e-14 0 0)
(-5.93253e-14 0 0)
(-5.41078e-14 0 0)
(-3.73036e-14 0 0)
(-6.13805e-14 0 0)
(-4.10111e-15 0 0)
(-3.74403e-14 0 0)
(1.26575e-14 0 0)
(-1.89713e-14 0 0)
(-5.90767e-15 0 0)
(-2.38023e-15 0 0)
(3.04001e-15 0 0)
(9.81557e-15 0 0)
(-1.10387e-14 0 0)
(8.87659e-15 0 0)
(-6.99386e-15 0 0)
(-1.76161e-14 0 0)
(6.53176e-15 0 0)
(1.42818e-14 0 0)
(-1.64183e-14 0 0)
(1.4307e-14 0 0)
(-1.58298e-14 0 0)
(-3.61463e-14 0 0)
(-2.39656e-14 0 0)
(-6.539e-14 0 0)
(-4.8929e-15 0 0)
(-6.15885e-14 0 0)
(1.8895e-14 0 0)
(-5.22398e-14 0 0)
(7.62784e-15 0 0)
(-6.29488e-14 0 0)
(-4.31248e-14 0 0)
(-3.88058e-14 0 0)
(-1.32519e-14 0 0)
(-6.5613e-14 0 0)
(2.03515e-14 0 0)
(-1.72e-14 0 0)
(3.38505e-15 0 0)
(9.1408e-15 0 0)
(2.36711e-14 0 0)
(1.34751e-14 0 0)
(3.14515e-14 0 0)
(1.81342e-14 0 0)
(4.09525e-14 0 0)
(3.77602e-14 0 0)
(6.60082e-16 0 0)
(5.01488e-14 0 0)
(-8.50075e-15 0 0)
(5.03975e-14 0 0)
(1.79694e-15 0 0)
(4.89814e-14 0 0)
(-8.99293e-15 0 0)
(6.7222e-14 0 0)
(2.23419e-14 0 0)
(4.61952e-14 0 0)
(2.96347e-14 0 0)
(4.02488e-15 0 0)
(3.66028e-14 0 0)
(-4.20737e-14 0 0)
(6.8308e-14 0 0)
(-9.17067e-15 0 0)
(9.76739e-14 0 0)
(1.8175e-14 0 0)
(9.39385e-14 0 0)
(2.55798e-14 0 0)
(6.07767e-14 0 0)
(3.90597e-14 0 0)
(8.11995e-14 0 0)
(2.44025e-14 0 0)
(1.06921e-13 0 0)
(5.16568e-14 0 0)
(1.08708e-13 0 0)
(1.03171e-13 0 0)
(1.18737e-13 0 0)
(1.26583e-13 0 0)
(5.64228e-14 0 0)
(1.52416e-13 0 0)
(1.02329e-13 0 0)
(1.18726e-13 0 0)
(1.28624e-13 0 0)
(1.47214e-13 0 0)
(1.13012e-13 0 0)
(1.47163e-13 0 0)
(1.36714e-13 0 0)
(1.58187e-13 0 0)
(9.91515e-14 0 0)
(1.78793e-13 0 0)
(1.29974e-13 0 0)
(1.41682e-13 0 0)
(1.48052e-13 0 0)
(1.57882e-13 0 0)
(1.13195e-13 0 0)
(1.80351e-13 0 0)
(1.36937e-13 0 0)
(1.51985e-13 0 0)
(1.44778e-13 0 0)
(1.16164e-13 0 0)
(1.5638e-13 0 0)
(1.32024e-13 0 0)
(1.25385e-13 0 0)
(1.16671e-13 0 0)
(8.86759e-14 0 0)
(1.25411e-13 0 0)
(9.60706e-14 0 0)
(1.18534e-13 0 0)
(1.06541e-13 0 0)
(1.48655e-13 0 0)
(1.35328e-13 0 0)
(1.58365e-13 0 0)
(1.1926e-13 0 0)
(1.22848e-13 0 0)
(1.58517e-13 0 0)
(1.50305e-13 0 0)
(1.422e-13 0 0)
(1.64054e-13 0 0)
(1.37475e-13 0 0)
(1.72489e-13 0 0)
(1.32227e-13 0 0)
(1.21457e-13 0 0)
(1.29501e-13 0 0)
(1.10692e-13 0 0)
(1.18991e-13 0 0)
(1.38165e-13 0 0)
(1.48625e-13 0 0)
(1.08663e-13 0 0)
(1.7896e-13 0 0)
(9.51471e-14 0 0)
(1.62303e-13 0 0)
(9.59336e-14 0 0)
(1.04785e-13 0 0)
(1.1426e-13 0 0)
(1.058e-13 0 0)
(1.21066e-13 0 0)
(9.75271e-14 0 0)
(1.06043e-13 0 0)
(6.24621e-14 0 0)
(1.08124e-13 0 0)
(4.00853e-14 0 0)
(1.29075e-13 0 0)
(6.72888e-14 0 0)
(9.93996e-14 0 0)
(7.68047e-14 0 0)
(8.59401e-14 0 0)
(7.61499e-14 0 0)
(9.84964e-14 0 0)
(5.51739e-14 0 0)
(1.21569e-13 0 0)
(7.88042e-14 0 0)
(8.25856e-14 0 0)
(9.3695e-14 0 0)
(1.048e-13 0 0)
(1.02881e-13 0 0)
(9.29339e-14 0 0)
(7.82155e-14 0 0)
(6.07212e-14 0 0)
(8.32959e-14 0 0)
(8.33669e-14 0 0)
(1.12012e-13 0 0)
(4.80584e-14 0 0)
(9.87093e-14 0 0)
(5.93559e-14 0 0)
(8.03826e-14 0 0)
(6.76996e-14 0 0)
(9.28931e-14 0 0)
(7.03237e-14 0 0)
(9.01575e-14 0 0)
(6.79638e-14 0 0)
(1.29628e-13 0 0)
(9.62382e-14 0 0)
(1.62034e-13 0 0)
(9.4462e-14 0 0)
(1.7461e-13 0 0)
(1.14012e-13 0 0)
(1.49219e-13 0 0)
(1.15661e-13 0 0)
(1.08637e-13 0 0)
(1.16102e-13 0 0)
(5.59559e-14 0 0)
(1.46513e-13 0 0)
(7.9698e-14 0 0)
(1.37413e-13 0 0)
(7.25722e-14 0 0)
(1.06327e-13 0 0)
(9.96131e-14 0 0)
(1.29978e-13 0 0)
(6.47766e-14 0 0)
(1.46564e-13 0 0)
(7.57645e-14 0 0)
(1.38718e-13 0 0)
(1.10464e-13 0 0)
(1.75179e-13 0 0)
(1.42647e-13 0 0)
(1.63942e-13 0 0)
(1.71794e-13 0 0)
(1.35181e-13 0 0)
(1.89466e-13 0 0)
(1.60187e-13 0 0)
(1.73611e-13 0 0)
(1.73454e-13 0 0)
(1.85411e-13 0 0)
(1.34846e-13 0 0)
(1.74631e-13 0 0)
(1.2264e-13 0 0)
(1.93536e-13 0 0)
(1.31111e-13 0 0)
(1.69119e-13 0 0)
(1.29557e-13 0 0)
(1.65617e-13 0 0)
(1.27294e-13 0 0)
(1.69621e-13 0 0)
(8.39615e-14 0 0)
(2.05737e-13 0 0)
(1.28487e-13 0 0)
(1.62059e-13 0 0)
(1.43637e-13 0 0)
(1.74849e-13 0 0)
(1.57335e-13 0 0)
(1.4052e-13 0 0)
(1.6848e-13 0 0)
(1.26873e-13 0 0)
(1.46585e-13 0 0)
(1.07191e-13 0 0)
(1.61658e-13 0 0)
(1.34059e-13 0 0)
(1.33658e-13 0 0)
(1.63465e-13 0 0)
(1.66429e-13 0 0)
(1.36008e-13 0 0)
(1.53462e-13 0 0)
(1.07632e-13 0 0)
(1.31359e-13 0 0)
(7.19632e-14 0 0)
(1.40362e-13 0 0)
(8.47123e-14 0 0)
(1.09657e-13 0 0)
(1.14793e-13 0 0)
(1.18691e-13 0 0)
(1.22284e-13 0 0)
(1.01928e-13 0 0)
(1.25512e-13 0 0)
(1.01856e-13 0 0)
(9.83949e-14 0 0)
(1.05805e-13 0 0)
(8.08397e-14 0 0)
(1.33876e-13 0 0)
(1.15184e-13 0 0)
(1.09429e-13 0 0)
(1.27507e-13 0 0)
(1.23041e-13 0 0)
(8.07331e-14 0 0)
(1.20482e-13 0 0)
(2.90872e-14 0 0)
(1.38164e-13 0 0)
(3.80602e-14 0 0)
(9.43596e-14 0 0)
(-2.55245e-15 0 0)
(6.16697e-14 0 0)
(-1.73572e-14 0 0)
(1.60733e-14 0 0)
(-3.07916e-14 0 0)
(9.74939e-15 0 0)
(-1.82558e-14 0 0)
(-1.82001e-14 0 0)
(-9.1354e-15 0 0)
(9.20139e-15 0 0)
(1.53273e-14 0 0)
(2.18376e-16 0 0)
(1.47044e-16 0 0)
(-1.45151e-14 0 0)
(1.66162e-14 0 0)
(-3.90541e-14 0 0)
(3.63288e-14 0 0)
(1.69872e-14 0 0)
(6.6131e-14 0 0)
(8.09553e-15 0 0)
(1.2099e-13 0 0)
(8.52349e-14 0 0)
(1.70297e-13 0 0)
(2.3118e-13 0 0)
(4.02406e-13 0 0)
(5.51803e-13 0 0)
(9.79275e-13 0 0)
(1.44497e-12 0 0)
(2.25194e-12 0 0)
(3.4643e-12 0 0)
(5.30836e-12 0 0)
(8.12355e-12 0 0)
(1.23553e-11 0 0)
(1.87378e-11 0 0)
(2.82623e-11 0 0)
(4.25772e-11 0 0)
(6.38265e-11 0 0)
(9.55028e-11 0 0)
(1.42272e-10 0 0)
(2.11324e-10 0 0)
(3.12893e-10 0 0)
(4.61665e-10 0 0)
(6.78968e-10 0 0)
(9.95088e-10 0 0)
(1.45361e-09 0 0)
(2.11602e-09 0 0)
(3.07003e-09 0 0)
(4.4386e-09 0 0)
(6.39535e-09 0 0)
(9.18265e-09 0 0)
(1.3139e-08 0 0)
(1.8734e-08 0 0)
(2.66178e-08 0 0)
(3.76857e-08 0 0)
(5.31662e-08 0 0)
(7.47384e-08 0 0)
(1.04687e-07 0 0)
(1.46108e-07 0 0)
(2.03179e-07 0 0)
(2.81516e-07 0 0)
(3.88631e-07 0 0)
(5.34532e-07 0 0)
(7.32496e-07 0 0)
(1.00005e-06 0 0)
(1.36026e-06 0 0)
(1.84329e-06 0 0)
(2.48844e-06 0 0)
(3.34673e-06 0 0)
(4.48397e-06 0 0)
(5.98478e-06 0 0)
(7.95736e-06 0 0)
(1.05394e-05 0 0)
(1.39055e-05 0 0)
(1.82756e-05 0 0)
(2.39257e-05 0 0)
(3.12003e-05 0 0)
(4.05272e-05 0 0)
(5.24352e-05 0 0)
(6.75744e-05 0 0)
(8.67398e-05 0 0)
(0.000110899 0 0)
(0.000141222 0 0)
(0.000179117 0 0)
(0.000226272 0 0)
(0.000284695 0 0)
(0.000356763 0 0)
(0.000445276 0 0)
(0.000553509 0 0)
(0.000685277 0 0)
(0.000844994 0 0)
(0.00103774 0 0)
(0.00126932 0 0)
(0.00154633 0 0)
(0.00187625 0 0)
(0.00226745 0 0)
(0.0027293 0 0)
(0.00327218 0 0)
(0.00390757 0 0)
(0.00464804 0 0)
(0.00550727 0 0)
(0.00650013 0 0)
(0.00764258 0 0)
(0.00895173 0 0)
(0.0104458 0 0)
(0.012144 0 0)
(0.0140666 0 0)
(0.0162348 0 0)
(0.0186704 0 0)
(0.0213964 0 0)
(0.024436 0 0)
(0.0278131 0 0)
(0.031552 0 0)
(0.0356772 0 0)
(0.0402134 0 0)
(0.0451854 0 0)
(0.0506177 0 0)
(0.0565348 0 0)
(0.0629608 0 0)
(0.0699191 0 0)
(0.0774331 0 0)
(0.085525 0 0)
(0.0942168 0 0)
(0.103529 0 0)
(0.113483 0 0)
(0.124097 0 0)
(0.135389 0 0)
(0.147378 0 0)
(0.160079 0 0)
(0.173508 0 0)
(0.18768 0 0)
(0.202609 0 0)
(0.218307 0 0)
(0.234786 0 0)
(0.252057 0 0)
(0.27013 0 0)
(0.289014 0 0)
(0.308718 0 0)
(0.329249 0 0)
(0.350616 0 0)
(0.372823 0 0)
(0.395877 0 0)
(0.419784 0 0)
(0.444547 0 0)
(0.470171 0 0)
(0.49666 0 0)
(0.524018 0 0)
(0.552247 0 0)
(0.58135 0 0)
(0.611329 0 0)
(0.642188 0 0)
(0.673927 0 0)
(0.706548 0 0)
(0.740053 0 0)
(0.774444 0 0)
(0.809722 0 0)
(0.845887 0 0)
(0.882941 0 0)
(0.920886 0 0)
(0.959721 0 0)
(0.999448 0 0)
(1.04007 0 0)
(1.08158 0 0)
(1.12399 0 0)
(1.16729 0 0)
(1.21149 0 0)
(1.25659 0 0)
(1.30258 0 0)
(1.34948 0 0)
(1.39727 0 0)
(1.44596 0 0)
(1.49555 0 0)
(1.54605 0 0)
(1.59745 0 0)
(1.64975 0 0)
(1.70296 0 0)
(1.75708 0 0)
(1.8121 0 0)
(1.86803 0 0)
(1.92487 0 0)
(1.98262 0 0)
(2.04129 0 0)
(2.10086 0 0)
(2.16136 0 0)
(2.22276 0 0)
(2.28509 0 0)
(2.34833 0 0)
(2.41249 0 0)
(2.47758 0 0)
(2.54359 0 0)
(2.61052 0 0)
(2.67838 0 0)
(2.74717 0 0)
(2.81688 0 0)
(2.88753 0 0)
(2.95911 0 0)
(3.03163 0 0)
(3.10508 0 0)
(3.17946 0 0)
(3.25479 0 0)
(3.33106 0 0)
(3.40828 0 0)
(3.48643 0 0)
(3.56554 0 0)
(3.6456 0 0)
(3.7266 0 0)
(3.80856 0 0)
(3.89148 0 0)
(3.97535 0 0)
(4.06018 0 0)
(4.14597 0 0)
(4.23272 0 0)
(4.32044 0 0)
(4.40913 0 0)
(4.49879 0 0)
(4.58942 0 0)
(4.68103 0 0)
(4.77361 0 0)
(4.86717 0 0)
(4.96171 0 0)
(5.05723 0 0)
(5.15374 0 0)
(5.25124 0 0)
(5.34972 0 0)
(5.44921 0 0)
(5.54968 0 0)
(5.65115 0 0)
(5.75363 0 0)
(5.8571 0 0)
(5.96158 0 0)
(6.06707 0 0)
(6.17356 0 0)
(6.28107 0 0)
(6.3896 0 0)
(6.49914 0 0)
(6.6097 0 0)
(6.72129 0 0)
(6.8339 0 0)
(6.94754 0 0)
(7.06221 0 0)
(7.17792 0 0)
(7.29466 0 0)
(7.41245 0 0)
(7.53127 0 0)
(7.65114 0 0)
(7.77206 0 0)
(7.89403 0 0)
(8.01706 0 0)
(8.14114 0 0)
(8.26629 0 0)
(8.3925 0 0)
(8.51977 0 0)
(8.64812 0 0)
(8.77754 0 0)
(8.90804 0 0)
(9.03962 0 0)
(9.17228 0 0)
(9.30603 0 0)
(9.44087 0 0)
(9.57681 0 0)
(9.71384 0 0)
(9.85197 0 0)
(9.99121 0 0)
(10.1316 0 0)
(10.273 0 0)
(10.4156 0 0)
(10.5593 0 0)
(10.7041 0 0)
(10.8501 0 0)
(10.9971 0 0)
(11.1454 0 0)
(11.2947 0 0)
(11.4452 0 0)
(11.5969 0 0)
(11.7497 0 0)
(11.9036 0 0)
(12.0587 0 0)
(12.215 0 0)
(12.3725 0 0)
(12.5311 0 0)
(12.6909 0 0)
(12.8519 0 0)
(13.0141 0 0)
(13.1774 0 0)
(13.342 0 0)
(13.5078 0 0)
(13.6747 0 0)
(13.8429 0 0)
(14.0123 0 0)
(14.1829 0 0)
(14.3548 0 0)
(14.5279 0 0)
(14.7022 0 0)
(14.8777 0 0)
(15.0545 0 0)
(15.2326 0 0)
(15.4119 0 0)
(15.5924 0 0)
(15.7743 0 0)
(15.9574 0 0)
(16.1418 0 0)
(16.3275 0 0)
(16.5144 0 0)
(16.7027 0 0)
(16.8923 0 0)
(17.0831 0 0)
(17.2753 0 0)
(17.4688 0 0)
(17.6637 0 0)
(17.8598 0 0)
(18.0573 0 0)
(18.2562 0 0)
(18.4564 0 0)
(18.658 0 0)
(18.8609 0 0)
(19.0652 0 0)
(19.2709 0 0)
(19.478 0 0)
(19.6865 0 0)
(19.8964 0 0)
(20.1077 0 0)
(20.3204 0 0)
(20.5345 0 0)
(20.7501 0 0)
(20.9671 0 0)
(21.1855 0 0)
(21.4054 0 0)
(21.6268 0 0)
(21.8496 0 0)
(22.0739 0 0)
(22.2998 0 0)
(22.5271 0 0)
(22.7559 0 0)
(22.9862 0 0)
(23.2181 0 0)
(23.4514 0 0)
(23.6865 0 0)
(23.9228 0 0)
(24.1611 0 0)
(24.4005 0 0)
(24.642 0 0)
(24.8844 0 0)
(25.1293 0 0)
(25.3747 0 0)
(25.6231 0 0)
(25.8715 0 0)
(26.1234 0 0)
(26.3749 0 0)
(26.6304 0 0)
(26.885 0 0)
(27.144 0 0)
(27.4019 0 0)
(27.6644 0 0)
(27.9257 0 0)
(28.1918 0 0)
(28.4565 0 0)
(28.7261 0 0)
(28.9944 0 0)
(29.2674 0 0)
(29.5396 0 0)
(29.8159 0 0)
(30.0922 0 0)
(30.3716 0 0)
(30.6524 0 0)
(30.9346 0 0)
(31.2203 0 0)
(31.505 0 0)
(31.7959 0 0)
(32.0832 0 0)
(32.3794 0 0)
(32.6691 0 0)
(32.9708 0 0)
(33.2631 0 0)
(33.5703 0 0)
(33.8652 0 0)
(34.178 0 0)
(34.4757 0 0)
(34.7942 0 0)
(35.0946 0 0)
(35.4189 0 0)
(35.7221 0 0)
(36.0524 0 0)
(36.3584 0 0)
(36.6948 0 0)
(37.0037 0 0)
(37.3463 0 0)
(37.6582 0 0)
(38.0072 0 0)
(38.3221 0 0)
(38.6776 0 0)
(38.9957 0 0)
(39.3579 0 0)
(39.679 0 0)
(40.0481 0 0)
(40.3725 0 0)
(40.7486 0 0)
(41.0764 0 0)
(41.4597 0 0)
(41.7909 0 0)
(42.1816 0 0)
(42.5164 0 0)
(42.9146 0 0)
(43.2532 0 0)
(43.659 0 0)
(44.0018 0 0)
(44.4151 0 0)
(44.7624 0 0)
(45.1834 0 0)
(45.5354 0 0)
(45.9642 0 0)
(46.3213 0 0)
(46.7581 0 0)
(47.1206 0 0)
(47.5654 0 0)
(47.9338 0 0)
(48.3867 0 0)
(48.7614 0 0)
(49.2225 0 0)
(49.604 0 0)
(50.0737 0 0)
(50.4623 0 0)
(50.9407 0 0)
(51.337 0 0)
(51.8245 0 0)
(52.2288 0 0)
(52.7258 0 0)
(53.1386 0 0)
(53.6453 0 0)
(54.0669 0 0)
(54.5838 0 0)
(55.0144 0 0)
(55.5415 0 0)
(55.9809 0 0)
(56.5175 0 0)
(56.9645 0 0)
(57.5087 0 0)
(57.9602 0 0)
(58.507 0 0)
(58.9553 0 0)
(59.4979 0 0)
(59.9266 0 0)
(60.448 0 0)
(60.8589 0 0)
(61.369 0 0)
(61.7747 0 0)
(62.2858 0 0)
(62.6957 0 0)
(63.2149 0 0)
(63.6317 0 0)
(64.1599 0 0)
(64.583 0 0)
(65.1181 0 0)
(65.5458 0 0)
(66.0854 0 0)
(66.5163 0 0)
(67.0596 0 0)
(67.4931 0 0)
(68.04 0 0)
(68.4762 0 0)
(69.027 0 0)
(69.4662 0 0)
(70.0212 0 0)
(70.4635 0 0)
(71.0227 0 0)
(71.468 0 0)
(72.0312 0 0)
(72.4793 0 0)
(73.0463 0 0)
(73.497 0 0)
(74.0676 0 0)
(74.5208 0 0)
(75.0948 0 0)
(75.5503 0 0)
(76.1277 0 0)
(76.5852 0 0)
(77.166 0 0)
(77.6255 0 0)
(78.2095 0 0)
(78.6709 0 0)
(79.2579 0 0)
(79.7209 0 0)
(80.3109 0 0)
(80.7752 0 0)
(81.3679 0 0)
(81.8333 0 0)
(82.4283 0 0)
(82.8945 0 0)
(83.4916 0 0)
(83.9582 0 0)
(84.5571 0 0)
(85.0238 0 0)
(85.6242 0 0)
(86.0906 0 0)
(86.6921 0 0)
(87.1578 0 0)
(87.7603 0 0)
(88.2249 0 0)
(88.8279 0 0)
(89.2908 0 0)
(89.8939 0 0)
(90.3544 0 0)
(90.9567 0 0)
(91.4137 0 0)
(92.0142 0 0)
(92.4664 0 0)
(93.0636 0 0)
(93.5094 0 0)
(94.1015 0 0)
(94.5385 0 0)
(95.1234 0 0)
(95.5494 0 0)
(96.1246 0 0)
(96.5369 0 0)
(97.1002 0 0)
(97.4961 0 0)
(98.0453 0 0)
(98.4234 0 0)
(98.9621 0 0)
(99.327 0 0)
(99.8501 0 0)
(100.183 0 0)
(100.676 0 0)
(100.951 0 0)
(101.412 0 0)
(101.619 0 0)
(102.042 0 0)
(102.172 0 0)
(102.553 0 0)
(102.596 0 0)
(102.93 0 0)
(102.884 0 0)
(103.173 0 0)
(103.046 0 0)
(103.307 0 0)
(103.129 0 0)
(103.41 0 0)
(103.247 0 0)
(104.499 0 0)
)
;

boundaryField
{
    sideLeft
    {
        type            symmetryPlane;
    }
    sideRight
    {
        type            calculated;
        value           uniform (104.499 0 0);
    }
    topbottom
    {
        type            empty;
    }
    frontback
    {
        type            empty;
    }
}


// ************************************************************************* //
