/*--------------------------------*- C++ -*----------------------------------*\
| =========                 |                                                 |
| \\      /  F ield         | OpenFOAM: The Open Source CFD Toolbox           |
|  \\    /   O peration     | Version:  2.4.0                                 |
|   \\  /    A nd           | Web:      www.OpenFOAM.org                      |
|    \\/     M anipulation  |                                                 |
\*---------------------------------------------------------------------------*/
FoamFile
{
    version     2.0;
    format      ascii;
    class       volVectorField;
    location    "0.14";
    object      Ur;
}
// * * * * * * * * * * * * * * * * * * * * * * * * * * * * * * * * * * * * * //

dimensions      [0 1 -1 0 0 0 0];

internalField   nonuniform List<vector> 
1000
(
(7.10543e-15 0 0)
(2.84217e-14 0 0)
(4.9738e-14 0 0)
(6.97936e-22 0 0)
(-6.39488e-14 0 0)
(-4.26326e-14 0 0)
(-7.10543e-15 0 0)
(2.13163e-14 0 0)
(2.13163e-14 0 0)
(7.10543e-15 0 0)
(7.10543e-14 0 0)
(1.42109e-14 0 0)
(-6.39488e-14 0 0)
(-1.42109e-14 0 0)
(-7.10543e-15 0 0)
(-2.13163e-14 0 0)
(-7.10543e-15 0 0)
(2.13163e-14 0 0)
(-7.10543e-15 0 0)
(-7.10543e-15 0 0)
(7.10543e-15 0 0)
(5.68434e-14 0 0)
(4.9738e-14 0 0)
(-6.39488e-14 0 0)
(-7.81597e-14 0 0)
(7.81597e-14 0 0)
(5.68434e-14 0 0)
(7.10543e-15 0 0)
(-3.82635e-22 0 0)
(-7.81597e-14 0 0)
(1.42109e-14 0 0)
(2.13163e-14 0 0)
(-4.26326e-14 0 0)
(-3.55271e-14 0 0)
(1.42109e-14 0 0)
(1.42109e-14 0 0)
(-7.10543e-14 0 0)
(-7.10543e-15 0 0)
(3.55271e-14 0 0)
(8.68198e-22 0 0)
(3.55271e-14 0 0)
(7.10543e-14 0 0)
(7.10543e-15 0 0)
(-6.39488e-14 0 0)
(-1.42109e-14 0 0)
(-4.26326e-14 0 0)
(-1.42109e-14 0 0)
(1.42109e-14 0 0)
(9.77644e-22 0 0)
(1.12385e-21 0 0)
(4.26326e-14 0 0)
(-1.42109e-14 0 0)
(-2.84217e-14 0 0)
(6.39488e-14 0 0)
(2.84217e-14 0 0)
(-3.55271e-14 0 0)
(-4.9738e-14 0 0)
(4.9738e-14 0 0)
(4.26326e-14 0 0)
(1.42109e-14 0 0)
(2.13163e-14 0 0)
(-3.55271e-14 0 0)
(-4.26326e-14 0 0)
(-2.13163e-14 0 0)
(-2.84217e-14 0 0)
(2.13163e-14 0 0)
(1.34841e-22 0 0)
(-1.0226e-22 0 0)
(4.9738e-14 0 0)
(7.10542e-15 0 0)
(-2.84217e-14 0 0)
(4.26326e-14 0 0)
(4.26326e-14 0 0)
(-7.10543e-15 0 0)
(2.84217e-14 0 0)
(5.89327e-22 0 0)
(-4.9738e-14 0 0)
(-5.68434e-14 0 0)
(7.10543e-15 0 0)
(2.84217e-14 0 0)
(2.13163e-14 0 0)
(7.10543e-15 0 0)
(-7.10543e-14 0 0)
(-7.10543e-15 0 0)
(1.06581e-13 0 0)
(7.81597e-14 0 0)
(-2.84217e-14 0 0)
(-5.68434e-14 0 0)
(-3.55271e-14 0 0)
(-4.9738e-14 0 0)
(-7.10543e-15 0 0)
(-7.10543e-15 0 0)
(3.55271e-14 0 0)
(-7.10543e-15 0 0)
(-2.84217e-14 0 0)
(3.55271e-14 0 0)
(-1.42109e-14 0 0)
(7.10543e-15 0 0)
(-2.13163e-14 0 0)
(-2.35847e-21 0 0)
(7.10543e-14 0 0)
(2.84217e-14 0 0)
(-1.42109e-14 0 0)
(2.13163e-14 0 0)
(-7.10543e-15 0 0)
(-4.26326e-14 0 0)
(-2.13163e-14 0 0)
(-7.10543e-14 0 0)
(-1.42109e-14 0 0)
(4.26326e-14 0 0)
(1.42109e-14 0 0)
(-1.42109e-14 0 0)
(-2.84217e-14 0 0)
(-4.26326e-14 0 0)
(-1.42109e-14 0 0)
(4.9738e-14 0 0)
(3.55271e-14 0 0)
(-8.52651e-14 0 0)
(-1.42109e-14 0 0)
(4.9738e-14 0 0)
(1.42109e-14 0 0)
(4.26326e-14 0 0)
(1.42109e-14 0 0)
(-2.13163e-14 0 0)
(1.64717e-21 0 0)
(4.26326e-14 0 0)
(-2.13163e-14 0 0)
(4.26326e-14 0 0)
(6.09879e-22 0 0)
(-1.06581e-13 0 0)
(-2.13163e-14 0 0)
(7.69617e-22 0 0)
(1.42109e-14 0 0)
(1.42109e-14 0 0)
(-1.42109e-14 0 0)
(-2.13163e-14 0 0)
(-3.55271e-14 0 0)
(-2.13163e-14 0 0)
(1.42109e-14 0 0)
(4.9738e-14 0 0)
(2.84217e-14 0 0)
(7.10543e-15 0 0)
(2.84217e-14 0 0)
(-2.13163e-14 0 0)
(-4.9738e-14 0 0)
(2.13163e-14 0 0)
(-7.10543e-15 0 0)
(-4.9738e-14 0 0)
(7.10543e-15 0 0)
(2.13163e-14 0 0)
(1.42109e-14 0 0)
(2.84217e-14 0 0)
(-1.42109e-14 0 0)
(7.10543e-15 0 0)
(1.42109e-14 0 0)
(-2.84217e-14 0 0)
(7.10543e-15 0 0)
(6.95095e-22 0 0)
(-7.10543e-15 0 0)
(-7.10543e-15 0 0)
(7.10543e-15 0 0)
(4.9738e-14 0 0)
(-6.13387e-22 0 0)
(-9.23706e-14 0 0)
(-2.13163e-14 0 0)
(4.26326e-14 0 0)
(1.42109e-14 0 0)
(-4.33098e-22 0 0)
(2.84217e-14 0 0)
(-1.42109e-14 0 0)
(-7.10543e-15 0 0)
(4.9738e-14 0 0)
(-7.10543e-15 0 0)
(-4.9738e-14 0 0)
(-1.42109e-14 0 0)
(7.10543e-15 0 0)
(2.74695e-22 0 0)
(4.9738e-14 0 0)
(-2.84217e-14 0 0)
(-2.84217e-14 0 0)
(3.55271e-14 0 0)
(-3.55271e-14 0 0)
(1.42109e-14 0 0)
(3.55271e-14 0 0)
(7.10543e-15 0 0)
(2.84217e-14 0 0)
(-1.42109e-14 0 0)
(-2.84217e-14 0 0)
(-3.55271e-14 0 0)
(-4.26326e-14 0 0)
(3.55271e-14 0 0)
(4.26326e-14 0 0)
(-2.84217e-14 0 0)
(7.10543e-15 0 0)
(2.84217e-14 0 0)
(-2.13163e-14 0 0)
(2.13163e-14 0 0)
(2.13163e-14 0 0)
(-1.42109e-14 0 0)
(-2.84217e-14 0 0)
(1.30665e-22 0 0)
(-4.67852e-22 0 0)
(-3.55271e-14 0 0)
(5.68434e-14 0 0)
(1.42109e-14 0 0)
(-4.26326e-14 0 0)
(-2.84217e-14 0 0)
(3.76954e-22 0 0)
(5.68434e-14 0 0)
(4.26326e-14 0 0)
(7.10543e-15 0 0)
(-3.55271e-14 0 0)
(-6.39488e-14 0 0)
(-2.84217e-14 0 0)
(1.31333e-22 0 0)
(-7.10543e-15 0 0)
(4.9738e-14 0 0)
(4.26326e-14 0 0)
(-1.42109e-14 0 0)
(1.42109e-14 0 0)
(-4.26326e-14 0 0)
(-2.13163e-14 0 0)
(4.26326e-14 0 0)
(-7.10543e-14 0 0)
(-1.42109e-14 0 0)
(4.9738e-14 0 0)
(-2.13163e-14 0 0)
(1.00822e-21 0 0)
(-7.10543e-15 0 0)
(-7.10543e-15 0 0)
(2.84217e-14 0 0)
(2.5197e-22 0 0)
(-4.9738e-14 0 0)
(4.9738e-14 0 0)
(2.84217e-14 0 0)
(-1.06581e-13 0 0)
(-2.13163e-14 0 0)
(4.26326e-14 0 0)
(2.84217e-14 0 0)
(-1.42109e-14 0 0)
(-5.68434e-14 0 0)
(2.13163e-14 0 0)
(6.39488e-14 0 0)
(-2.84217e-14 0 0)
(-7.10543e-15 0 0)
(2.13163e-14 0 0)
(-3.00461e-21 0 0)
(1.42109e-14 0 0)
(7.10543e-15 0 0)
(1.42109e-14 0 0)
(5.68434e-14 0 0)
(1.42109e-14 0 0)
(-7.10543e-15 0 0)
(-3.55271e-14 0 0)
(-2.84217e-14 0 0)
(4.26326e-14 0 0)
(2.13163e-14 0 0)
(1.42109e-14 0 0)
(1.42109e-14 0 0)
(-7.10543e-15 0 0)
(-2.13163e-14 0 0)
(1.42109e-14 0 0)
(7.10543e-15 0 0)
(-4.26326e-14 0 0)
(-1.42109e-14 0 0)
(1.42109e-14 0 0)
(-7.10543e-15 0 0)
(-1.42109e-14 0 0)
(-1.42109e-14 0 0)
(-2.84217e-14 0 0)
(1.13687e-13 0 0)
(3.55271e-14 0 0)
(-8.52651e-14 0 0)
(7.10543e-14 0 0)
(1.42109e-14 0 0)
(-7.10543e-14 0 0)
(-2.13163e-14 0 0)
(-1.07941e-22 0 0)
(-3.55271e-14 0 0)
(8.56168e-22 0 0)
(7.10543e-15 0 0)
(2.13163e-14 0 0)
(8.52651e-14 0 0)
(5.04779e-22 0 0)
(-7.81597e-14 0 0)
(-2.13163e-14 0 0)
(-7.10543e-15 0 0)
(-2.13163e-14 0 0)
(-1.42109e-14 0 0)
(2.84217e-14 0 0)
(2.84217e-14 0 0)
(-2.13163e-14 0 0)
(7.10543e-15 0 0)
(2.13163e-14 0 0)
(6.95095e-22 0 0)
(2.13163e-14 0 0)
(7.10543e-15 0 0)
(-1.42109e-14 0 0)
(9.14485e-22 0 0)
(-4.9738e-14 0 0)
(7.10543e-15 0 0)
(7.10543e-15 0 0)
(-6.39488e-14 0 0)
(1.42109e-14 0 0)
(3.55271e-14 0 0)
(7.10543e-15 0 0)
(-1.42109e-14 0 0)
(1.42109e-14 0 0)
(3.55271e-14 0 0)
(2.13163e-14 0 0)
(-2.13163e-14 0 0)
(-4.26326e-14 0 0)
(2.13163e-14 0 0)
(4.26326e-14 0 0)
(2.13163e-14 0 0)
(7.10543e-15 0 0)
(1.87859e-21 0 0)
(-3.55271e-14 0 0)
(-2.13163e-14 0 0)
(-1.42109e-14 0 0)
(-5.68434e-14 0 0)
(1.42109e-14 0 0)
(2.84217e-14 0 0)
(-7.10543e-15 0 0)
(-3.55271e-14 0 0)
(5.68434e-14 0 0)
(4.9738e-14 0 0)
(-9.23706e-14 0 0)
(-3.55271e-14 0 0)
(2.13163e-14 0 0)
(7.10543e-14 0 0)
(3.55271e-14 0 0)
(1.10396e-21 0 0)
(-4.26326e-14 0 0)
(2.84217e-14 0 0)
(7.10543e-15 0 0)
(-4.9738e-14 0 0)
(-6.90082e-22 0 0)
(-2.13163e-14 0 0)
(1.3028e-21 0 0)
(1.42109e-14 0 0)
(4.26326e-14 0 0)
(-4.9738e-14 0 0)
(-4.9738e-14 0 0)
(4.9738e-14 0 0)
(1.06581e-13 0 0)
(-1.42109e-14 0 0)
(-1.42109e-13 0 0)
(2.13163e-14 0 0)
(4.9738e-14 0 0)
(-2.84217e-14 0 0)
(-2.13163e-14 0 0)
(-1.42109e-14 0 0)
(7.10543e-15 0 0)
(-1.39187e-22 0 0)
(1.42109e-14 0 0)
(3.55271e-14 0 0)
(-2.13163e-14 0 0)
(-2.13163e-14 0 0)
(2.84217e-14 0 0)
(-3.55271e-14 0 0)
(1.42109e-14 0 0)
(7.10543e-15 0 0)
(-7.10543e-15 0 0)
(4.9738e-14 0 0)
(3.55271e-14 0 0)
(4.9738e-14 0 0)
(-2.13163e-14 0 0)
(-1.13687e-13 0 0)
(-7.10543e-15 0 0)
(9.23706e-14 0 0)
(3.55271e-14 0 0)
(-2.13163e-14 0 0)
(-7.10543e-15 0 0)
(-2.13163e-14 0 0)
(-4.26326e-14 0 0)
(7.10543e-15 0 0)
(-2.57502e-21 0 0)
(-3.55271e-14 0 0)
(3.55271e-14 0 0)
(2.84217e-14 0 0)
(-1.42109e-14 0 0)
(2.13163e-14 0 0)
(-7.10543e-15 0 0)
(1.18066e-21 0 0)
(4.26326e-14 0 0)
(-2.84217e-14 0 0)
(-7.81597e-14 0 0)
(-1.42109e-14 0 0)
(2.13163e-14 0 0)
(1.52787e-21 0 0)
(2.84217e-14 0 0)
(3.55271e-14 0 0)
(2.13163e-14 0 0)
(4.26326e-14 0 0)
(-5.68434e-14 0 0)
(-2.50117e-21 0 0)
(4.26326e-14 0 0)
(-1.42109e-14 0 0)
(2.84217e-14 0 0)
(-7.10543e-14 0 0)
(-8.52651e-14 0 0)
(-1.03595e-22 0 0)
(4.26326e-14 0 0)
(4.26326e-14 0 0)
(-1.42109e-14 0 0)
(7.10543e-15 0 0)
(-7.10543e-15 0 0)
(1.42109e-14 0 0)
(7.81597e-14 0 0)
(4.74868e-22 0 0)
(-7.10543e-15 0 0)
(2.84217e-14 0 0)
(-1.42109e-14 0 0)
(-6.39488e-14 0 0)
(-4.26326e-14 0 0)
(-7.85397e-24 0 0)
(1.42109e-14 0 0)
(4.26326e-14 0 0)
(1.42109e-14 0 0)
(-4.9738e-14 0 0)
(-5.68434e-14 0 0)
(7.12138e-22 0 0)
(3.55271e-14 0 0)
(-2.0796e-21 0 0)
(2.13163e-14 0 0)
(2.13163e-14 0 0)
(-2.13163e-14 0 0)
(-7.95356e-23 0 0)
(1.42109e-14 0 0)
(7.10543e-15 0 0)
(-2.13163e-14 0 0)
(2.13163e-14 0 0)
(3.55271e-14 0 0)
(7.10543e-15 0 0)
(1.42109e-14 0 0)
(-7.10543e-14 0 0)
(-4.9738e-14 0 0)
(4.9738e-14 0 0)
(2.13163e-14 0 0)
(-1.42109e-14 0 0)
(-3.71941e-22 0 0)
(-7.10543e-15 0 0)
(-4.26326e-14 0 0)
(2.84217e-14 0 0)
(-8.72544e-22 0 0)
(-2.84217e-14 0 0)
(-4.26326e-14 0 0)
(3.55271e-14 0 0)
(9.23706e-14 0 0)
(-4.9738e-14 0 0)
(-5.68434e-14 0 0)
(7.81597e-14 0 0)
(5.68434e-14 0 0)
(2.13163e-14 0 0)
(-3.55271e-14 0 0)
(-6.39488e-14 0 0)
(1.42109e-14 0 0)
(-1.42109e-14 0 0)
(-3.19134e-23 0 0)
(2.76868e-22 0 0)
(-7.10543e-15 0 0)
(-7.10543e-15 0 0)
(-2.84217e-14 0 0)
(-3.55271e-14 0 0)
(-2.84217e-14 0 0)
(1.22327e-21 0 0)
(2.84217e-14 0 0)
(3.55271e-14 0 0)
(4.9738e-14 0 0)
(2.5005e-21 0 0)
(-4.26326e-14 0 0)
(3.55271e-14 0 0)
(3.55271e-14 0 0)
(-4.9738e-14 0 0)
(-1.42109e-14 0 0)
(4.26326e-14 0 0)
(7.03148e-21 0 0)
(-2.13163e-14 0 0)
(-7.10542e-15 0 0)
(2.84217e-14 0 0)
(4.26326e-14 0 0)
(3.55272e-14 0 0)
(4.60751e-20 0 0)
(3.55272e-14 0 0)
(1.35003e-13 0 0)
(1.77636e-13 0 0)
(2.34479e-13 0 0)
(3.83693e-13 0 0)
(5.7554e-13 0 0)
(8.88179e-13 0 0)
(1.32872e-12 0 0)
(1.93978e-12 0 0)
(2.84928e-12 0 0)
(4.30589e-12 0 0)
(6.51568e-12 0 0)
(9.59234e-12 0 0)
(1.40332e-11 0 0)
(2.05844e-11 0 0)
(3.0127e-11 0 0)
(4.39187e-11 0 0)
(6.36079e-11 0 0)
(9.18307e-11 0 0)
(1.32317e-10 0 0)
(1.89871e-10 0 0)
(2.71435e-10 0 0)
(3.86493e-10 0 0)
(5.48028e-10 0 0)
(7.74471e-10 0 0)
(1.09038e-09 0 0)
(1.52887e-09 0 0)
(2.13525e-09 0 0)
(2.9705e-09 0 0)
(4.11617e-09 0 0)
(5.68069e-09 0 0)
(7.80822e-09 0 0)
(1.06891e-08 0 0)
(1.45727e-08 0 0)
(1.9785e-08 0 0)
(2.67496e-08 0 0)
(3.60137e-08 0 0)
(4.82801e-08 0 0)
(6.44476e-08 0 0)
(8.56575e-08 0 0)
(1.13351e-07 0 0)
(1.49338e-07 0 0)
(1.95878e-07 0 0)
(2.55768e-07 0 0)
(3.32458e-07 0 0)
(4.30169e-07 0 0)
(5.54027e-07 0 0)
(7.10219e-07 0 0)
(9.06155e-07 0 0)
(1.15064e-06 0 0)
(1.45405e-06 0 0)
(1.82854e-06 0 0)
(2.28815e-06 0 0)
(2.84904e-06 0 0)
(3.52956e-06 0 0)
(4.35037e-06 0 0)
(5.33442e-06 0 0)
(6.50695e-06 0 0)
(7.89532e-06 0 0)
(9.52872e-06 0 0)
(1.14378e-05 0 0)
(1.36543e-05 0 0)
(1.62098e-05 0 0)
(1.91355e-05 0 0)
(2.2461e-05 0 0)
(2.62127e-05 0 0)
(3.04128e-05 0 0)
(3.50781e-05 0 0)
(4.02178e-05 0 0)
(4.58327e-05 0 0)
(5.19131e-05 0 0)
(5.84383e-05 0 0)
(6.53746e-05 0 0)
(7.26754e-05 0 0)
(8.02804e-05 0 0)
(8.81156e-05 0 0)
(9.60943e-05 0 0)
(0.000104118 0 0)
(0.000112079 0 0)
(0.000119861 0 0)
(0.000127342 0 0)
(0.000134401 0 0)
(0.000140915 0 0)
(0.000146768 0 0)
(0.000151852 0 0)
(0.000156071 0 0)
(0.000159342 0 0)
(0.000161598 0 0)
(0.000162794 0 0)
(0.000162902 0 0)
(0.000161914 0 0)
(0.000159844 0 0)
(0.000156722 0 0)
(0.0001526 0 0)
(0.000147542 0 0)
(0.000141628 0 0)
(0.000134947 0 0)
(0.000127597 0 0)
(0.000119683 0 0)
(0.000111311 0 0)
(0.000102589 0 0)
(9.36209e-05 0 0)
(8.45085e-05 0 0)
(7.53473e-05 0 0)
(6.62261e-05 0 0)
(5.72256e-05 0 0)
(4.8418e-05 0 0)
(3.98661e-05 0 0)
(3.16237e-05 0 0)
(2.37355e-05 0 0)
(1.62372e-05 0 0)
(9.15607e-06 0 0)
(2.5115e-06 0 0)
(-3.68435e-06 0 0)
(-9.42588e-06 0 0)
(-1.47133e-05 0 0)
(-1.9552e-05 0 0)
(-2.39517e-05 0 0)
(-2.79257e-05 0 0)
(-3.14904e-05 0 0)
(-3.46646e-05 0 0)
(-3.7469e-05 0 0)
(-3.99253e-05 0 0)
(-4.20562e-05 0 0)
(-4.3885e-05 0 0)
(-4.54349e-05 0 0)
(-4.67289e-05 0 0)
(-4.77894e-05 0 0)
(-4.86382e-05 0 0)
(-4.92961e-05 0 0)
(-4.97828e-05 0 0)
(-5.0117e-05 0 0)
(-5.03162e-05 0 0)
(-5.03965e-05 0 0)
(-5.0373e-05 0 0)
(-5.02592e-05 0 0)
(-5.00678e-05 0 0)
(-4.98099e-05 0 0)
(-4.94957e-05 0 0)
(-4.91343e-05 0 0)
(-4.87338e-05 0 0)
(-4.83013e-05 0 0)
(-4.7843e-05 0 0)
(-4.73644e-05 0 0)
(-4.68703e-05 0 0)
(-4.63648e-05 0 0)
(-4.58513e-05 0 0)
(-4.53329e-05 0 0)
(-4.48121e-05 0 0)
(-4.42911e-05 0 0)
(-4.37716e-05 0 0)
(-4.32551e-05 0 0)
(-4.27429e-05 0 0)
(-4.22359e-05 0 0)
(-4.1735e-05 0 0)
(-4.12408e-05 0 0)
(-4.07538e-05 0 0)
(-4.02744e-05 0 0)
(-3.98029e-05 0 0)
(-3.93395e-05 0 0)
(-3.88843e-05 0 0)
(-3.84375e-05 0 0)
(-3.79991e-05 0 0)
(-3.7569e-05 0 0)
(-3.71473e-05 0 0)
(-3.67339e-05 0 0)
(-3.63287e-05 0 0)
(-3.59315e-05 0 0)
(-3.55424e-05 0 0)
(-3.51611e-05 0 0)
(-3.47876e-05 0 0)
(-3.44217e-05 0 0)
(-3.40632e-05 0 0)
(-3.3712e-05 0 0)
(-3.3368e-05 0 0)
(-3.30309e-05 0 0)
(-3.27006e-05 0 0)
(-3.23769e-05 0 0)
(-3.20597e-05 0 0)
(-3.17488e-05 0 0)
(-3.14439e-05 0 0)
(-3.11449e-05 0 0)
(-3.08517e-05 0 0)
(-3.05639e-05 0 0)
(-3.02813e-05 0 0)
(-3.00039e-05 0 0)
(-2.97313e-05 0 0)
(-2.94633e-05 0 0)
(-2.91997e-05 0 0)
(-2.89402e-05 0 0)
(-2.86847e-05 0 0)
(-2.84329e-05 0 0)
(-2.81845e-05 0 0)
(-2.79394e-05 0 0)
(-2.76973e-05 0 0)
(-2.74579e-05 0 0)
(-2.72212e-05 0 0)
(-2.69869e-05 0 0)
(-2.67548e-05 0 0)
(-2.65247e-05 0 0)
(-2.62965e-05 0 0)
(-2.607e-05 0 0)
(-2.58452e-05 0 0)
(-2.56219e-05 0 0)
(-2.54e-05 0 0)
(-2.51795e-05 0 0)
(-2.49603e-05 0 0)
(-2.47424e-05 0 0)
(-2.45258e-05 0 0)
(-2.43104e-05 0 0)
(-2.40963e-05 0 0)
(-2.38835e-05 0 0)
(-2.3672e-05 0 0)
(-2.34618e-05 0 0)
(-2.32531e-05 0 0)
(-2.30458e-05 0 0)
(-2.284e-05 0 0)
(-2.26358e-05 0 0)
(-2.24333e-05 0 0)
(-2.22324e-05 0 0)
(-2.20332e-05 0 0)
(-2.18359e-05 0 0)
(-2.16404e-05 0 0)
(-2.14469e-05 0 0)
(-2.12553e-05 0 0)
(-2.10657e-05 0 0)
(-2.08781e-05 0 0)
(-2.06927e-05 0 0)
(-2.05093e-05 0 0)
(-2.03281e-05 0 0)
(-2.01491e-05 0 0)
(-1.99723e-05 0 0)
(-1.97976e-05 0 0)
(-1.96251e-05 0 0)
(-1.94549e-05 0 0)
(-1.92868e-05 0 0)
(-1.91208e-05 0 0)
(-1.8957e-05 0 0)
(-1.87953e-05 0 0)
(-1.86357e-05 0 0)
(-1.84781e-05 0 0)
(-1.83225e-05 0 0)
(-1.81688e-05 0 0)
(-1.80169e-05 0 0)
(-1.78669e-05 0 0)
(-1.77187e-05 0 0)
(-1.75722e-05 0 0)
(-1.74273e-05 0 0)
(-1.7284e-05 0 0)
(-1.71421e-05 0 0)
(-1.70018e-05 0 0)
(-1.68628e-05 0 0)
(-1.67251e-05 0 0)
(-1.65887e-05 0 0)
(-1.64534e-05 0 0)
(-1.63193e-05 0 0)
(-1.61863e-05 0 0)
(-1.60543e-05 0 0)
(-1.59234e-05 0 0)
(-1.57934e-05 0 0)
(-1.56643e-05 0 0)
(-1.55362e-05 0 0)
(-1.54091e-05 0 0)
(-1.52829e-05 0 0)
(-1.51576e-05 0 0)
(-1.50332e-05 0 0)
(-1.49098e-05 0 0)
(-1.47873e-05 0 0)
(-1.46657e-05 0 0)
(-1.45451e-05 0 0)
(-1.44254e-05 0 0)
(-1.43067e-05 0 0)
(-1.41889e-05 0 0)
(-1.4072e-05 0 0)
(-1.3956e-05 0 0)
(-1.3841e-05 0 0)
(-1.3727e-05 0 0)
(-1.36138e-05 0 0)
(-1.35016e-05 0 0)
(-1.33904e-05 0 0)
(-1.32801e-05 0 0)
(-1.31708e-05 0 0)
(-1.30624e-05 0 0)
(-1.29551e-05 0 0)
(-1.28488e-05 0 0)
(-1.27435e-05 0 0)
(-1.26391e-05 0 0)
(-1.25358e-05 0 0)
(-1.24335e-05 0 0)
(-1.23321e-05 0 0)
(-1.22315e-05 0 0)
(-1.21321e-05 0 0)
(-1.2033e-05 0 0)
(-1.19354e-05 0 0)
(-1.18373e-05 0 0)
(-1.1742e-05 0 0)
(-1.16439e-05 0 0)
(-1.15521e-05 0 0)
(-1.14525e-05 0 0)
(-1.13674e-05 0 0)
(-1.12635e-05 0 0)
(-1.11907e-05 0 0)
(-1.10771e-05 0 0)
(-1.10239e-05 0 0)
(-1.08923e-05 0 0)
(-1.08628e-05 0 0)
(-1.0708e-05 0 0)
(-1.06948e-05 0 0)
(-1.05303e-05 0 0)
(-1.05001e-05 0 0)
(-1.03767e-05 0 0)
(-1.0262e-05 0 0)
(-1.02662e-05 0 0)
(-9.98992e-06 0 0)
(-1.01918e-05 0 0)
(-9.74947e-06 0 0)
(-1.01016e-05 0 0)
(-9.66023e-06 0 0)
(-9.73605e-06 0 0)
(-9.81479e-06 0 0)
(-8.33281e-06 0 0)
(-9.99139e-06 0 0)
(-1.12994e-05 0 0)
(-8.42411e-06 0 0)
(-9.8509e-06 0 0)
(-8.28475e-06 0 0)
(-1.00338e-05 0 0)
(-7.93791e-06 0 0)
(-9.88884e-06 0 0)
(-7.71285e-06 0 0)
(-1.08172e-05 0 0)
(-6.78914e-06 0 0)
(-1.22975e-05 0 0)
(-5.24711e-06 0 0)
(-1.31291e-05 0 0)
(-3.89149e-06 0 0)
(-8.89238e-06 0 0)
(-5.95678e-06 0 0)
(5.63464e-06 0 0)
(-2.21296e-05 0 0)
(-8.36127e-06 0 0)
(-1.09468e-05 0 0)
(-5.31948e-06 0 0)
(-1.02697e-05 0 0)
(-6.01217e-06 0 0)
(-4.48816e-06 0 0)
(-2.33047e-05 0 0)
(9.01398e-07 0 0)
(-3.87258e-06 0 0)
(-8.62577e-06 0 0)
(-1.64262e-05 0 0)
(1.97358e-06 0 0)
(1.78541e-06 0 0)
(-1.724e-05 0 0)
(-1.06829e-05 0 0)
(-1.69815e-06 0 0)
(-6.82925e-06 0 0)
(-8.54806e-06 0 0)
(-6.11934e-06 0 0)
(-6.704e-06 0 0)
(-6.97426e-06 0 0)
(-7.20258e-06 0 0)
(-6.50419e-06 0 0)
(-6.23582e-06 0 0)
(-6.60251e-06 0 0)
(-6.77349e-06 0 0)
(-6.02256e-06 0 0)
(-6.44169e-06 0 0)
(-7.1614e-06 0 0)
(-5.32096e-06 0 0)
(-5.9031e-06 0 0)
(-5.99037e-06 0 0)
(-5.47583e-06 0 0)
(-6.40188e-06 0 0)
(-3.85101e-06 0 0)
(-9.16445e-06 0 0)
(3.50993e-06 0 0)
(-1.08117e-05 0 0)
(-4.51249e-06 0 0)
(-5.65761e-06 0 0)
(-2.50746e-06 0 0)
(-9.53636e-06 0 0)
(-6.70971e-06 0 0)
(-4.44416e-06 0 0)
(-4.37894e-06 0 0)
(-4.59375e-06 0 0)
(-3.9919e-06 0 0)
(-7.16363e-06 0 0)
(-4.26012e-06 0 0)
(-4.49503e-06 0 0)
(-4.03346e-06 0 0)
(-5.01241e-06 0 0)
(-4.99133e-06 0 0)
(-3.73189e-06 0 0)
(-7.38129e-06 0 0)
(-1.65425e-06 0 0)
(-8.69695e-06 0 0)
(3.13081e-07 0 0)
(-7.58873e-06 0 0)
(6.80544e-07 0 0)
(-5.99349e-06 0 0)
(7.64061e-07 0 0)
(-7.64538e-06 0 0)
(1.45284e-07 0 0)
(-4.39542e-06 0 0)
(-8.89123e-07 0 0)
(-7.09032e-07 0 0)
(-2.1274e-06 0 0)
(3.23038e-07 0 0)
(-3.64265e-06 0 0)
(-1.65779e-06 0 0)
(-4.46331e-06 0 0)
(-6.06474e-06 0 0)
(-1.11059e-05 0 0)
(-1.95789e-05 0 0)
(-2.94239e-05 0 0)
(-2.07491e-06 0 0)
(5.77073e-07 0 0)
(-8.2423e-06 0 0)
(-7.37257e-06 0 0)
(-5.12846e-06 0 0)
(-2.19334e-06 0 0)
(1.21421e-06 0 0)
(3.36915e-06 0 0)
(4.78602e-06 0 0)
(4.96056e-06 0 0)
(4.92028e-06 0 0)
(5.95815e-06 0 0)
(5.58428e-06 0 0)
(6.50815e-06 0 0)
(7.16069e-06 0 0)
(6.45211e-06 0 0)
(7.08384e-06 0 0)
(7.23185e-06 0 0)
(8.01389e-06 0 0)
(6.44776e-06 0 0)
(6.90834e-06 0 0)
(7.08463e-06 0 0)
(6.38916e-06 0 0)
(7.39544e-06 0 0)
(7.55907e-06 0 0)
(9.66633e-06 0 0)
(8.86655e-06 0 0)
(1.20758e-05 0 0)
(1.12361e-05 0 0)
(1.42176e-05 0 0)
(1.27285e-05 0 0)
(1.49035e-05 0 0)
(1.57809e-05 0 0)
(1.39608e-05 0 0)
(1.80924e-05 0 0)
(1.19687e-05 0 0)
(1.79282e-05 0 0)
(1.24598e-05 0 0)
(1.71641e-05 0 0)
(1.75505e-05 0 0)
(1.70118e-05 0 0)
(2.12515e-05 0 0)
(1.69061e-05 0 0)
(2.32228e-05 0 0)
(2.11097e-05 0 0)
(2.57419e-05 0 0)
(2.68804e-05 0 0)
(2.71235e-05 0 0)
(2.9244e-05 0 0)
(2.84999e-05 0 0)
(2.91818e-05 0 0)
(3.1925e-05 0 0)
(3.0822e-05 0 0)
(3.33954e-05 0 0)
(3.38525e-05 0 0)
(3.445e-05 0 0)
(4.14158e-05 0 0)
(3.61167e-05 0 0)
(3.8794e-05 0 0)
(3.24468e-05 0 0)
(4.64686e-05 0 0)
(5.52602e-05 0 0)
(5.36882e-05 0 0)
(5.01159e-05 0 0)
(3.84519e-05 0 0)
(5.6926e-05 0 0)
(6.47001e-05 0 0)
(7.29402e-05 0 0)
(8.23666e-05 0 0)
(7.1698e-05 0 0)
(5.50108e-05 0 0)
(6.48648e-05 0 0)
(9.11906e-05 0 0)
(0.000118307 0 0)
(0.000111457 0 0)
(4.37896e-05 0 0)
(0.000528848 0 0)
(0.00480284 0 0)
(-0.00430816 0 0)
(-0.00333935 0 0)
(0.00902453 0 0)
(0.00640498 0 0)
(0.00679166 0 0)
(0.00173463 0 0)
(-0.00184875 0 0)
(0.00243486 0 0)
(-0.00134339 0 0)
(0.000171075 0 0)
(0.000662691 0 0)
(0.000334543 0 0)
(0.000375092 0 0)
(0.000425975 0 0)
(0.000187264 0 0)
(0.000255102 0 0)
(-0.000793577 0 0)
(-0.00193861 0 0)
(0.00439335 0 0)
(0.000607849 0 0)
(-0.00338578 0 0)
(-0.00256209 0 0)
)
;

boundaryField
{
    sideLeft
    {
        type            symmetryPlane;
    }
    sideRight
    {
        type            calculated;
        value           uniform (-0.512175 0 0);
    }
    topbottom
    {
        type            empty;
    }
    frontback
    {
        type            empty;
    }
}


// ************************************************************************* //
