/*--------------------------------*- C++ -*----------------------------------*\
| =========                 |                                                 |
| \\      /  F ield         | OpenFOAM: The Open Source CFD Toolbox           |
|  \\    /   O peration     | Version:  2.4.0                                 |
|   \\  /    A nd           | Web:      www.OpenFOAM.org                      |
|    \\/     M anipulation  |                                                 |
\*---------------------------------------------------------------------------*/
FoamFile
{
    version     2.0;
    format      ascii;
    class       volScalarField;
    location    "0.12";
    object      p;
}
// * * * * * * * * * * * * * * * * * * * * * * * * * * * * * * * * * * * * * //

dimensions      [1 -1 -2 0 0 0 0];

internalField   nonuniform List<scalar> 
1000
(
5e+06
5e+06
5e+06
5e+06
5e+06
5e+06
5e+06
5e+06
5e+06
5e+06
5e+06
5e+06
5e+06
5e+06
5e+06
5e+06
5e+06
5e+06
5e+06
5e+06
5e+06
5e+06
5e+06
5e+06
5e+06
5e+06
5e+06
5e+06
5e+06
5e+06
5e+06
5e+06
5e+06
5e+06
5e+06
5e+06
5e+06
5e+06
5e+06
5e+06
5e+06
5e+06
5e+06
5e+06
5e+06
5e+06
5e+06
5e+06
5e+06
5e+06
5e+06
5e+06
5e+06
5e+06
5e+06
5e+06
5e+06
5e+06
5e+06
5e+06
5e+06
5e+06
5e+06
5e+06
5e+06
5e+06
5e+06
5e+06
5e+06
5e+06
5e+06
5e+06
5e+06
5e+06
5e+06
5e+06
5e+06
5e+06
5e+06
5e+06
5e+06
5e+06
5e+06
5e+06
5e+06
5e+06
5e+06
5e+06
5e+06
5e+06
5e+06
5e+06
5e+06
5e+06
5e+06
5e+06
5e+06
5e+06
5e+06
5e+06
5e+06
5e+06
5e+06
5e+06
5e+06
5e+06
5e+06
5e+06
5e+06
5e+06
5e+06
5e+06
5e+06
5e+06
5e+06
5e+06
5e+06
5e+06
5e+06
5e+06
5e+06
5e+06
5e+06
5e+06
5e+06
5e+06
5e+06
5e+06
5e+06
5e+06
5e+06
5e+06
5e+06
5e+06
5e+06
5e+06
5e+06
5e+06
5e+06
5e+06
5e+06
5e+06
5e+06
5e+06
5e+06
5e+06
5e+06
5e+06
5e+06
5e+06
5e+06
5e+06
5e+06
5e+06
5e+06
5e+06
5e+06
5e+06
5e+06
5e+06
5e+06
5e+06
5e+06
5e+06
5e+06
5e+06
5e+06
5e+06
5e+06
5e+06
5e+06
5e+06
5e+06
5e+06
5e+06
5e+06
5e+06
5e+06
5e+06
5e+06
5e+06
5e+06
5e+06
5e+06
5e+06
5e+06
5e+06
5e+06
5e+06
5e+06
5e+06
5e+06
5e+06
5e+06
5e+06
5e+06
5e+06
5e+06
5e+06
5e+06
5e+06
5e+06
5e+06
5e+06
5e+06
5e+06
5e+06
5e+06
5e+06
5e+06
5e+06
5e+06
5e+06
5e+06
5e+06
5e+06
5e+06
5e+06
5e+06
5e+06
5e+06
5e+06
5e+06
5e+06
5e+06
5e+06
5e+06
5e+06
5e+06
5e+06
5e+06
5e+06
5e+06
5e+06
5e+06
5e+06
5e+06
5e+06
5e+06
5e+06
5e+06
5e+06
5e+06
5e+06
5e+06
5e+06
5e+06
5e+06
5e+06
5e+06
5e+06
5e+06
5e+06
5e+06
5e+06
5e+06
5e+06
5e+06
5e+06
5e+06
5e+06
5e+06
5e+06
5e+06
5e+06
5e+06
5e+06
5e+06
5e+06
5e+06
5e+06
5e+06
5e+06
5e+06
5e+06
5e+06
5e+06
5e+06
5e+06
5e+06
5e+06
5e+06
5e+06
5e+06
5e+06
5e+06
5e+06
5e+06
5e+06
5e+06
5e+06
5e+06
5e+06
5e+06
5e+06
5e+06
5e+06
5e+06
5e+06
5e+06
5e+06
5e+06
5e+06
5e+06
5e+06
5e+06
5e+06
5e+06
5e+06
5e+06
5e+06
5e+06
5e+06
5e+06
5e+06
5e+06
5e+06
5e+06
5e+06
5e+06
5e+06
5e+06
5e+06
5e+06
5e+06
5e+06
5e+06
5e+06
5e+06
5e+06
5e+06
5e+06
5e+06
5e+06
5e+06
5e+06
5e+06
5e+06
5e+06
5e+06
5e+06
5e+06
5e+06
5e+06
5e+06
5e+06
5e+06
5e+06
5e+06
5e+06
5e+06
5e+06
5e+06
5e+06
5e+06
5e+06
5e+06
5e+06
5e+06
5e+06
5e+06
5e+06
5e+06
5e+06
5e+06
5e+06
5e+06
5e+06
5e+06
5e+06
5e+06
5e+06
5e+06
5e+06
5e+06
5e+06
5e+06
5e+06
5e+06
5e+06
5e+06
5e+06
5e+06
5e+06
5e+06
5e+06
5e+06
5e+06
5e+06
5e+06
5e+06
5e+06
5e+06
5e+06
5e+06
5e+06
5e+06
5e+06
5e+06
5e+06
5e+06
5e+06
5e+06
5e+06
5e+06
5e+06
5e+06
5e+06
5e+06
5e+06
5e+06
5e+06
5e+06
5e+06
5e+06
5e+06
5e+06
5e+06
5e+06
5e+06
5e+06
5e+06
5e+06
5e+06
5e+06
5e+06
5e+06
5e+06
5e+06
5e+06
5e+06
5e+06
5e+06
5e+06
5e+06
5e+06
5e+06
5e+06
5e+06
5e+06
5e+06
5e+06
5e+06
5e+06
5e+06
5e+06
5e+06
5e+06
5e+06
5e+06
5e+06
5e+06
5e+06
5e+06
5e+06
5e+06
5e+06
5e+06
5e+06
5e+06
5e+06
5e+06
5e+06
5e+06
5e+06
5e+06
5e+06
5e+06
5e+06
5e+06
5e+06
5e+06
5e+06
5e+06
5e+06
5e+06
5e+06
5e+06
5e+06
5e+06
5e+06
5e+06
5e+06
5e+06
5e+06
5e+06
5e+06
5e+06
5e+06
5e+06
5e+06
5e+06
5e+06
5e+06
5e+06
5e+06
5e+06
5e+06
5e+06
5e+06
5e+06
5e+06
5e+06
5e+06
5e+06
5e+06
5e+06
5e+06
5e+06
5e+06
5e+06
5e+06
5e+06
5e+06
5e+06
5e+06
5e+06
5e+06
5e+06
5e+06
5e+06
5e+06
5e+06
5e+06
5e+06
5e+06
5e+06
5e+06
5e+06
5e+06
5e+06
5e+06
5e+06
5e+06
5e+06
5e+06
5e+06
5e+06
5e+06
5e+06
5e+06
5e+06
5e+06
5e+06
5e+06
5e+06
5e+06
5e+06
5e+06
5e+06
5e+06
5e+06
5e+06
5e+06
5e+06
5e+06
5e+06
5e+06
5e+06
5e+06
5e+06
5e+06
5e+06
5e+06
5e+06
5e+06
5e+06
5e+06
5e+06
5e+06
5e+06
5e+06
5e+06
5e+06
5e+06
5e+06
5e+06
5e+06
5e+06
5e+06
5e+06
5e+06
5e+06
5e+06
5e+06
5e+06
5e+06
5e+06
5e+06
5e+06
5e+06
5e+06
4.99999e+06
4.99999e+06
4.99999e+06
4.99999e+06
4.99998e+06
4.99998e+06
4.99997e+06
4.99996e+06
4.99995e+06
4.99993e+06
4.99991e+06
4.99988e+06
4.99985e+06
4.9998e+06
4.99975e+06
4.99968e+06
4.99959e+06
4.99949e+06
4.99936e+06
4.9992e+06
4.999e+06
4.99877e+06
4.99849e+06
4.99815e+06
4.99775e+06
4.99727e+06
4.99671e+06
4.99606e+06
4.9953e+06
4.99443e+06
4.99342e+06
4.99226e+06
4.99095e+06
4.98947e+06
4.9878e+06
4.98594e+06
4.98387e+06
4.98157e+06
4.97904e+06
4.97627e+06
4.97326e+06
4.96998e+06
4.96645e+06
4.96265e+06
4.95858e+06
4.95424e+06
4.94964e+06
4.94478e+06
4.93966e+06
4.93429e+06
4.92868e+06
4.92283e+06
4.91675e+06
4.91046e+06
4.90397e+06
4.89728e+06
4.89041e+06
4.88337e+06
4.87618e+06
4.86884e+06
4.86137e+06
4.85378e+06
4.84608e+06
4.83829e+06
4.83041e+06
4.82245e+06
4.81443e+06
4.80635e+06
4.79822e+06
4.79004e+06
4.78183e+06
4.7736e+06
4.76534e+06
4.75706e+06
4.74877e+06
4.74047e+06
4.73217e+06
4.72386e+06
4.71556e+06
4.70726e+06
4.69896e+06
4.69067e+06
4.68239e+06
4.67412e+06
4.66586e+06
4.65761e+06
4.64938e+06
4.64115e+06
4.63294e+06
4.62475e+06
4.61657e+06
4.6084e+06
4.60024e+06
4.5921e+06
4.58397e+06
4.57585e+06
4.56775e+06
4.55966e+06
4.55158e+06
4.54352e+06
4.53547e+06
4.52743e+06
4.5194e+06
4.51138e+06
4.50337e+06
4.49537e+06
4.48739e+06
4.47941e+06
4.47145e+06
4.46349e+06
4.45554e+06
4.44761e+06
4.43968e+06
4.43176e+06
4.42385e+06
4.41594e+06
4.40805e+06
4.40016e+06
4.39228e+06
4.3844e+06
4.37654e+06
4.36868e+06
4.36083e+06
4.35298e+06
4.34514e+06
4.33731e+06
4.32948e+06
4.32166e+06
4.31385e+06
4.30604e+06
4.29823e+06
4.29043e+06
4.28264e+06
4.27486e+06
4.26707e+06
4.2593e+06
4.25153e+06
4.24376e+06
4.236e+06
4.22824e+06
4.22049e+06
4.21275e+06
4.205e+06
4.19727e+06
4.18954e+06
4.18181e+06
4.17409e+06
4.16637e+06
4.15866e+06
4.15095e+06
4.14324e+06
4.13554e+06
4.12785e+06
4.12016e+06
4.11247e+06
4.10478e+06
4.0971e+06
4.08943e+06
4.08176e+06
4.07409e+06
4.06642e+06
4.05876e+06
4.0511e+06
4.04344e+06
4.03579e+06
4.02814e+06
4.02049e+06
4.01284e+06
4.0052e+06
3.99756e+06
3.98992e+06
3.98228e+06
3.97464e+06
3.96701e+06
3.95937e+06
3.95174e+06
3.9441e+06
3.93647e+06
3.92884e+06
3.92121e+06
3.91358e+06
3.90595e+06
3.89832e+06
3.89069e+06
3.88306e+06
3.87543e+06
3.86779e+06
3.86016e+06
3.85253e+06
3.84489e+06
3.83726e+06
3.82962e+06
3.82198e+06
3.81434e+06
3.8067e+06
3.79905e+06
3.79141e+06
3.78376e+06
3.77611e+06
3.76846e+06
3.7608e+06
3.75315e+06
3.74549e+06
3.73782e+06
3.73016e+06
3.72249e+06
3.71481e+06
3.70713e+06
3.69945e+06
3.69177e+06
3.68408e+06
3.67638e+06
3.66868e+06
3.66098e+06
3.65327e+06
3.64555e+06
3.63783e+06
3.6301e+06
3.62237e+06
3.61463e+06
3.60688e+06
3.59913e+06
3.59137e+06
3.5836e+06
3.57583e+06
3.56804e+06
3.56025e+06
3.55245e+06
3.54464e+06
3.53682e+06
3.529e+06
3.52116e+06
3.51331e+06
3.50546e+06
3.49759e+06
3.48971e+06
3.48182e+06
3.47392e+06
3.46601e+06
3.45808e+06
3.45015e+06
3.4422e+06
3.43423e+06
3.42626e+06
3.41826e+06
3.41026e+06
3.40224e+06
3.3942e+06
3.38615e+06
3.37808e+06
3.37e+06
3.36189e+06
3.35377e+06
3.34563e+06
3.33747e+06
3.3293e+06
3.3211e+06
3.31288e+06
3.30464e+06
3.29638e+06
3.2881e+06
3.2798e+06
3.27146e+06
3.26311e+06
3.25472e+06
3.24631e+06
3.23787e+06
3.2294e+06
3.22091e+06
3.21239e+06
3.20385e+06
3.19527e+06
3.18666e+06
3.178e+06
3.1693e+06
3.16058e+06
3.15182e+06
3.14303e+06
3.13418e+06
3.1253e+06
3.11638e+06
3.10741e+06
3.09839e+06
3.08933e+06
3.08022e+06
3.07105e+06
3.06184e+06
3.05257e+06
3.04324e+06
3.03385e+06
3.0244e+06
3.01489e+06
3.00531e+06
2.99566e+06
2.98594e+06
2.97614e+06
2.96626e+06
2.95631e+06
2.94627e+06
2.93615e+06
2.92594e+06
2.91565e+06
2.90528e+06
2.89483e+06
2.88432e+06
2.87377e+06
2.8632e+06
2.85264e+06
2.84213e+06
2.83179e+06
2.8217e+06
2.81187e+06
2.80226e+06
2.79279e+06
2.78339e+06
2.774e+06
2.76458e+06
2.75511e+06
2.74558e+06
2.73599e+06
2.72636e+06
2.71671e+06
2.70705e+06
2.69738e+06
2.68773e+06
2.67808e+06
2.66846e+06
2.65884e+06
2.64922e+06
2.63961e+06
2.63e+06
2.62039e+06
2.61078e+06
2.60119e+06
2.59159e+06
2.58201e+06
2.57243e+06
2.56287e+06
2.55333e+06
2.5438e+06
2.53429e+06
2.5248e+06
2.51532e+06
2.50587e+06
2.49644e+06
2.48703e+06
2.47765e+06
2.46829e+06
2.45897e+06
2.44968e+06
2.44043e+06
2.43122e+06
2.42204e+06
2.41289e+06
2.40377e+06
2.39469e+06
2.38566e+06
2.3767e+06
2.36779e+06
2.35896e+06
2.35019e+06
2.34146e+06
2.33278e+06
2.32414e+06
2.31554e+06
2.307e+06
2.29855e+06
2.29021e+06
2.28199e+06
2.27389e+06
2.26592e+06
2.25808e+06
2.25034e+06
2.24271e+06
2.23518e+06
2.22775e+06
2.22043e+06
2.21325e+06
2.20624e+06
2.19944e+06
2.19288e+06
2.18663e+06
2.1807e+06
2.17515e+06
2.17e+06
2.16524e+06
2.1609e+06
2.15692e+06
2.15322e+06
2.14972e+06
2.14674e+06
2.1447e+06
2.14376e+06
2.14389e+06
2.14494e+06
2.14697e+06
2.14997e+06
2.15394e+06
2.15881e+06
2.1646e+06
2.17125e+06
2.17871e+06
2.18685e+06
2.19544e+06
2.20411e+06
2.21239e+06
2.21983e+06
2.22235e+06
)
;

boundaryField
{
    sideLeft
    {
        type            symmetryPlane;
    }
    sideRight
    {
        type            myWaveTransmissive;
        phi             phi.air;
        rho             rho.air;
        psi             thermo:psi.air;
        gamma           1.4;
        fieldInf        100000;
        lInf            10;
        value           uniform 2.21699e+06;
    }
    topbottom
    {
        type            empty;
    }
    frontback
    {
        type            empty;
    }
}


// ************************************************************************* //
