/*--------------------------------*- C++ -*----------------------------------*\
| =========                 |                                                 |
| \\      /  F ield         | OpenFOAM: The Open Source CFD Toolbox           |
|  \\    /   O peration     | Version:  2.4.0                                 |
|   \\  /    A nd           | Web:      www.OpenFOAM.org                      |
|    \\/     M anipulation  |                                                 |
\*---------------------------------------------------------------------------*/
FoamFile
{
    version     2.0;
    format      ascii;
    class       surfaceScalarField;
    location    "0.12";
    object      phi.air;
}
// * * * * * * * * * * * * * * * * * * * * * * * * * * * * * * * * * * * * * //

dimensions      [0 3 -1 0 0 0 0];

internalField   nonuniform List<scalar> 
999
(
1.39674e-14
2.18375e-13
7.44802e-13
6.10574e-13
2.41585e-13
6.16999e-13
1.43617e-12
1.07782e-12
2.15063e-12
4.03753e-12
3.54384e-12
3.79451e-12
3.88242e-12
3.89261e-12
4.2709e-12
2.81846e-12
2.76841e-12
2.64173e-12
2.38207e-12
2.46435e-12
1.62543e-12
3.9643e-13
1.05579e-12
2.8096e-13
-5.63512e-13
-2.31125e-13
-3.84824e-13
3.68243e-14
-5.40013e-13
-7.39962e-13
-1.53279e-12
-1.37896e-12
-1.16204e-12
-1.25587e-12
-1.05322e-12
-5.6284e-13
-1.25635e-12
-2.13665e-12
-1.79645e-12
-1.76712e-12
-2.60819e-12
-1.9209e-12
-7.83129e-13
-1.54406e-12
-1.30576e-12
-6.16003e-13
-5.67089e-13
-3.40068e-13
7.68159e-13
6.91259e-13
7.27628e-13
1.65825e-14
-7.913e-13
-6.35514e-13
-6.96332e-13
-1.53965e-12
-1.38706e-12
-7.85787e-13
-2.12453e-12
-1.17495e-12
-9.23937e-13
-9.53363e-13
-1.46937e-12
-2.34194e-12
-2.00609e-12
-6.78978e-13
-4.94212e-13
-1.84741e-13
-5.83263e-13
-5.82769e-13
-8.64687e-13
-1.18847e-12
-1.97869e-12
-1.48867e-12
-1.17254e-12
-8.32385e-13
-1.79408e-12
-1.17816e-12
-1.69879e-12
-1.67351e-12
-9.4744e-13
-3.7124e-13
5.36632e-13
1.97551e-12
1.44462e-12
2.11548e-12
2.36558e-12
2.64892e-12
2.40308e-12
3.74274e-12
3.23474e-12
3.23382e-12
3.03069e-12
1.50294e-12
9.75683e-13
1.39042e-12
1.5881e-12
1.50461e-12
1.36965e-12
2.42614e-12
2.04558e-12
2.12023e-12
7.7996e-13
1.98952e-13
-2.95944e-13
9.2788e-13
9.417e-13
2.34227e-12
2.56233e-12
2.24032e-12
1.32161e-12
2.55237e-12
2.84499e-12
1.55088e-12
3.39133e-12
4.14286e-12
3.7919e-12
3.43903e-12
2.33042e-12
3.11503e-12
2.68004e-12
1.47995e-12
1.21816e-12
1.44382e-12
1.19541e-12
3.27546e-12
2.84564e-12
4.80714e-12
3.28076e-12
2.61444e-12
1.87533e-12
3.21359e-12
2.21193e-12
1.95496e-12
2.50443e-12
2.6787e-12
2.00718e-12
1.75359e-12
1.5964e-12
1.23319e-12
6.69298e-13
1.22558e-12
6.33941e-13
1.41937e-12
1.02886e-12
1.57733e-12
1.37011e-12
2.21505e-12
1.93452e-12
1.53123e-12
1.79061e-12
1.7352e-12
1.76362e-12
1.63365e-12
1.51588e-12
1.06578e-12
-4.96297e-13
-8.52652e-14
-1.04404e-12
-2.46916e-12
-3.19298e-12
-3.4475e-12
-4.30828e-12
-3.71294e-12
-2.32099e-12
-2.68047e-12
-2.27756e-12
-1.72352e-12
-2.96827e-12
-2.50642e-12
-8.73754e-13
-1.24913e-12
-8.17028e-13
-1.75235e-12
-1.74642e-12
-2.30836e-12
-1.86991e-12
-1.96054e-12
-2.31658e-12
-2.7961e-12
-1.99869e-12
-2.37043e-12
-1.55723e-12
-9.64727e-13
-1.04756e-14
-9.94766e-14
-1.88778e-13
-3.75271e-13
-1.03518e-12
-7.53362e-13
-7.94036e-13
-3.50244e-13
4.49191e-14
9.62603e-13
2.01729e-12
2.14805e-12
3.44029e-12
4.77474e-12
4.14629e-12
2.69512e-12
2.75777e-12
2.87565e-12
2.93302e-12
1.58781e-12
8.46944e-13
-4.02801e-13
-9.95642e-13
-1.44342e-12
-1.92869e-12
-1.04683e-12
-1.84694e-12
-1.47735e-12
-4.56006e-13
-1.13842e-13
-1.21835e-12
-2.56654e-12
-2.93709e-12
-2.24855e-12
-2.05573e-12
-1.60606e-12
-3.12639e-13
-4.22005e-15
-4.26326e-13
-9.94755e-14
-3.3942e-13
9.50143e-13
8.19416e-13
2.25725e-12
1.49826e-12
1.21713e-12
1.68693e-12
2.04238e-12
2.37143e-12
1.87257e-12
1.39852e-12
1.22033e-12
1.53382e-12
-1.07921e-14
-4.97767e-13
5.54224e-13
1.29345e-12
6.05644e-13
1.55183e-12
1.15566e-12
-3.06267e-14
-8.88498e-15
-1.46797e-13
-8.76153e-13
-2.12972e-12
-2.2101e-12
-2.05769e-12
-1.84806e-12
-1.43551e-12
-2.5066e-12
-1.42329e-12
-3.0598e-12
-3.40467e-12
-2.85137e-12
-2.26774e-12
-2.18119e-12
-2.61495e-12
-2.14393e-12
-1.62249e-12
-2.88926e-13
-2.8532e-13
3.18364e-13
8.74192e-13
3.69896e-13
1.35348e-14
5.65174e-13
2.84218e-14
4.02624e-14
9.84213e-13
-2.94654e-13
-6.03189e-13
-3.84055e-13
-1.23752e-12
-2.26424e-12
-1.67069e-12
-2.77626e-12
-1.92479e-12
-1.54076e-12
-2.70005e-13
-3.84753e-13
2.55794e-13
-2.6293e-13
3.01447e-13
9.12878e-13
1.14198e-12
2.13093e-12
2.58174e-12
2.09797e-12
1.55681e-12
8.58238e-13
1.94624e-12
1.30869e-12
1.4353e-12
1.90307e-12
1.90617e-13
3.28541e-13
7.55138e-13
8.73675e-13
1.57875e-12
7.33158e-13
1.12941e-12
8.5607e-13
-4.13516e-13
-7.1487e-13
-1.56409e-12
-2.47045e-12
-7.98628e-13
-2.63665e-13
8.18996e-13
1.77079e-12
6.04601e-13
5.08419e-13
7.55663e-13
5.31244e-13
1.13687e-13
1.42549e-13
2.86165e-13
7.38024e-13
9.32495e-13
1.40772e-12
8.90204e-13
5.06084e-13
-7.10543e-14
3.30061e-13
-4.68957e-13
-1.52845e-13
-9.30562e-15
1.28867e-12
3.12623e-12
1.24697e-12
4.12115e-13
4.36744e-13
4.63941e-13
1.28646e-12
1.70318e-12
8.6388e-13
2.09226e-12
2.17915e-12
3.81633e-12
3.17185e-12
3.21583e-12
3.14589e-12
2.81493e-12
2.40349e-12
3.85685e-12
2.829e-12
2.08152e-12
2.5042e-12
4.03455e-12
3.81686e-12
3.84189e-12
1.91949e-12
1.55948e-12
3.83693e-13
-7.06581e-13
-4.37047e-13
-4.88302e-13
-1.77527e-12
-1.20455e-12
-1.62071e-12
-1.0356e-12
-1.06881e-12
-6.0867e-13
-1.14185e-12
-1.53606e-12
-1.39808e-12
3.64642e-14
-7.51093e-13
-1.28671e-12
-8.8487e-13
6.95194e-14
9.81069e-13
1.63408e-12
1.32811e-12
1.17218e-12
2.70044e-12
2.17344e-12
2.62023e-12
2.69675e-12
2.96411e-12
1.57204e-12
2.25824e-12
2.26306e-12
1.95032e-12
2.01353e-12
1.65068e-12
5.11591e-13
1.89471e-13
9.86999e-13
2.13163e-13
1.00996e-13
9.50459e-13
1.17801e-12
1.75781e-12
1.7013e-12
1.42968e-12
2.19885e-12
2.10373e-12
1.82142e-12
1.96393e-12
3.22172e-12
3.77524e-12
3.55338e-12
4.41706e-12
3.731e-12
2.44341e-12
3.24019e-12
2.13314e-12
1.92476e-12
1.77409e-12
4.63929e-13
-2.98428e-13
-1.16176e-12
-1.04293e-12
-1.83664e-13
2.18438e-13
2.08001e-12
1.87048e-12
2.87366e-12
3.65748e-12
4.05947e-12
3.98035e-12
4.01773e-12
3.1798e-12
3.69513e-12
3.17411e-12
2.04463e-12
2.80309e-12
9.3979e-13
1.92476e-12
1.46147e-12
2.46768e-12
2.6442e-12
2.5363e-12
2.67578e-12
1.99989e-12
3.39422e-12
1.90015e-12
2.37767e-12
2.70085e-12
2.68782e-12
2.64527e-12
2.51582e-12
1.94374e-12
1.00441e-12
6.537e-13
1.48332e-12
1.27555e-12
3.15246e-12
3.62353e-12
3.46976e-12
2.39103e-12
2.02488e-12
3.1072e-12
2.53978e-12
2.20803e-12
2.74752e-12
3.25826e-12
1.67331e-12
2.55796e-13
-8.52655e-14
-9.83827e-13
-9.06007e-13
-1.16649e-12
-8.70771e-13
-1.44109e-12
-2.07608e-12
-2.86615e-12
-2.86696e-12
-4.43043e-12
-3.2955e-12
-2.62844e-12
-3.13408e-12
-3.43979e-12
-3.46034e-12
-2.68491e-12
-1.49612e-12
-1.22511e-12
1.07594e-13
1.01791e-12
1.44195e-12
2.60433e-12
5.71991e-13
-1.15067e-12
-8.33016e-13
-1.0036e-12
-1.66721e-12
-2.04384e-12
-2.39042e-12
-2.80445e-12
-2.05191e-12
-2.20116e-12
-4.22065e-12
-4.24253e-12
-4.44382e-12
-4.13084e-12
-2.70271e-12
-1.50869e-12
-1.45608e-12
-1.3135e-12
-4.26328e-14
2.90573e-14
-1.04385e-12
-1.62387e-12
-8.80756e-13
-6.0193e-13
-6.20653e-13
-2.02613e-13
-5.60764e-13
-2.74891e-13
1.3612e-13
-8.63615e-13
-7.00639e-13
-1.17174e-12
-1.93389e-12
-1.81647e-12
-2.71147e-12
-3.20691e-12
-3.59734e-12
-3.98974e-12
-3.39261e-12
-4.11927e-12
-3.25844e-12
-3.91132e-12
-4.00749e-12
-2.24403e-12
-3.51092e-12
-2.40722e-12
-2.41567e-12
-3.4532e-12
-2.36072e-12
-1.94927e-12
-1.46921e-12
-9.88432e-13
1.5188e-13
1.52903e-12
2.30548e-12
4.17826e-12
6.10317e-12
9.06215e-12
1.07713e-11
1.47743e-11
1.97488e-11
2.48013e-11
3.65449e-11
5.58391e-11
8.2356e-11
1.24088e-10
1.94344e-10
3.05566e-10
4.84461e-10
7.65612e-10
1.20197e-09
1.88104e-09
2.93657e-09
4.56729e-09
7.0763e-09
1.09238e-08
1.68051e-08
2.57583e-08
3.93327e-08
5.9835e-08
9.06838e-08
1.36913e-07
2.05921e-07
3.08521e-07
4.60456e-07
6.84542e-07
1.0137e-06
1.49522e-06
2.19674e-06
3.21451e-06
4.68494e-06
6.80044e-06
9.83108e-06
1.41542e-05
2.02945e-05
2.8978e-05
4.12043e-05
5.83434e-05
8.22626e-05
0.000115495
0.000161459
0.000224743
0.000311475
0.000429797
0.000590462
0.000807601
0.00109968
0.00149069
0.00201163
0.0027023
0.00361355
0.00480989
0.00637273
0.00840412
0.0110312
0.0144113
0.0187381
0.0242478
0.0312274
0.0400224
0.0510463
0.0647899
0.081832
0.10285
0.128629
0.160074
0.198218
0.244232
0.299429
0.36527
0.443367
0.53548
0.643511
0.769497
0.915597
1.08407
1.27726
1.49757
1.74741
2.0292
2.34532
2.69807
3.08961
3.52199
3.99705
4.51643
5.08152
5.69345
6.35307
7.06095
7.81735
8.62222
9.47526
10.3758
11.3231
12.316
13.353
14.4328
15.5536
16.7135
17.9105
19.1427
20.4079
21.704
23.0287
24.38
25.7558
27.1539
28.5724
30.0093
31.4628
32.9313
34.4129
35.9063
37.4099
38.9225
40.4429
41.9699
43.5026
45.0401
46.5816
48.1263
49.6736
51.2231
52.7742
54.3264
55.8796
57.4332
58.9872
60.5413
62.0954
63.6493
65.2029
66.7561
68.3089
69.8613
71.4132
72.9647
74.5157
76.0663
77.6164
79.1662
80.7156
82.2648
83.8137
85.3624
86.911
88.4595
90.0079
91.5564
93.1049
94.6536
96.2025
97.7516
99.301
100.851
102.401
103.952
105.503
107.054
108.607
110.16
111.713
113.268
114.823
116.379
117.936
119.494
121.053
122.613
124.174
125.736
127.299
128.863
130.429
131.995
133.563
135.132
136.702
138.274
139.847
141.421
142.997
144.574
146.152
147.732
149.313
150.896
152.48
154.065
155.652
157.241
158.831
160.422
162.016
163.61
165.207
166.805
168.404
170.006
171.609
173.214
174.82
176.429
178.039
179.651
181.265
182.881
184.499
186.119
187.741
189.365
190.991
192.62
194.25
195.883
197.519
199.156
200.797
202.439
204.084
205.732
207.382
209.035
210.69
212.348
214.009
215.673
217.34
219.009
220.682
222.357
224.036
225.718
227.402
229.09
230.781
232.476
234.173
235.874
237.579
239.287
240.998
242.713
244.431
246.153
247.879
249.608
251.342
253.079
254.82
256.565
258.314
260.067
261.824
263.586
265.352
267.122
268.897
270.676
272.459
274.248
276.041
277.839
279.641
281.449
283.262
285.079
286.903
288.731
290.565
292.404
294.249
296.099
297.955
299.817
301.685
303.559
305.439
307.326
309.219
311.118
313.024
314.936
316.856
318.782
320.716
322.656
324.604
326.56
328.523
330.493
332.472
334.459
336.454
338.457
340.469
342.49
344.52
346.559
348.608
350.665
352.733
354.81
356.897
358.995
361.103
363.222
365.353
367.496
369.65
371.817
373.995
376.186
378.388
380.603
382.83
385.072
387.332
389.606
391.895
394.196
396.515
398.85
401.203
403.572
405.96
408.364
410.79
413.233
415.698
418.182
420.688
423.216
425.768
428.343
430.943
433.568
436.22
438.899
441.606
444.344
447.111
449.911
452.743
455.61
458.51
461.446
464.415
467.42
470.455
473.521
476.61
479.719
482.305
484.857
487.367
489.835
492.272
494.688
497.094
499.501
501.911
504.334
506.761
509.2
511.638
514.081
516.52
518.957
521.387
523.814
526.233
528.65
531.06
533.469
535.871
538.271
540.661
543.048
545.43
547.804
550.172
552.531
554.882
557.223
559.555
561.876
564.189
566.489
568.78
571.059
573.327
575.579
577.817
580.038
582.244
584.433
586.609
588.77
590.917
593.044
595.15
597.228
599.28
601.305
603.307
605.291
607.259
609.208
611.137
613.036
614.898
616.714
618.482
620.2
621.87
623.495
625.078
626.621
628.127
629.592
631.01
632.371
633.661
634.865
635.962
636.94
637.787
638.488
639.032
639.426
639.679
639.798
639.826
639.754
639.422
638.668
637.535
636.045
634.199
631.999
629.458
626.581
623.384
619.857
616.04
611.96
607.688
603.293
598.787
595.177
594.134
)
;

boundaryField
{
    sideLeft
    {
        type            symmetryPlane;
        value           uniform 0;
    }
    sideRight
    {
        type            calculated;
        value           uniform 596.33;
    }
    topbottom
    {
        type            empty;
        value           nonuniform 0();
    }
    frontback
    {
        type            empty;
        value           nonuniform 0();
    }
}


// ************************************************************************* //
