/*--------------------------------*- C++ -*----------------------------------*\
| =========                 |                                                 |
| \\      /  F ield         | OpenFOAM: The Open Source CFD Toolbox           |
|  \\    /   O peration     | Version:  2.4.0                                 |
|   \\  /    A nd           | Web:      www.OpenFOAM.org                      |
|    \\/     M anipulation  |                                                 |
\*---------------------------------------------------------------------------*/
FoamFile
{
    version     2.0;
    format      ascii;
    class       surfaceScalarField;
    location    "0.12";
    object      phi.water;
}
// * * * * * * * * * * * * * * * * * * * * * * * * * * * * * * * * * * * * * //

dimensions      [0 3 -1 0 0 0 0];

internalField   nonuniform List<scalar> 
999
(
2.41341e-13
2.18375e-13
4.60585e-13
4.96887e-13
2.98428e-13
5.60155e-13
1.54985e-12
1.19151e-12
1.86641e-12
4.26491e-12
3.71437e-12
3.62398e-12
4.16664e-12
3.83576e-12
4.2709e-12
2.53424e-12
2.93894e-12
2.64173e-12
2.5526e-12
2.35066e-12
1.56859e-12
5.10117e-13
1.05579e-12
-6.01003e-14
-5.63512e-13
-3.75124e-15
-3.27981e-13
3.68243e-14
-8.2423e-13
-3.42058e-13
-1.53279e-12
-1.89055e-12
-9.91512e-13
-9.71654e-13
-1.16691e-12
-7.90214e-13
-8.58447e-13
-2.53455e-12
-1.56907e-12
-1.59659e-12
-2.55135e-12
-2.09143e-12
-1.12419e-12
-1.37353e-12
-1.19208e-12
-7.86533e-13
-6.80776e-13
1.1468e-13
5.97629e-13
5.77572e-13
6.70784e-13
-9.71043e-14
-4.50239e-13
-1.03342e-12
-1.27898e-13
-1.76702e-12
-1.15968e-12
-1.18369e-12
-1.84031e-12
-1.85707e-12
-9.23937e-13
-7.82833e-13
-1.01462e-12
-2.56932e-12
-2.17662e-12
-6.22135e-13
-4.37369e-13
-1.42106e-14
-6.9695e-13
-7.53299e-13
-5.8047e-13
-1.70006e-12
-1.58078e-12
-1.48867e-12
-1.1157e-12
-1.23029e-12
-1.22565e-12
-1.68975e-12
-1.52826e-12
-1.27561e-12
-1.34534e-12
-7.123e-13
8.77693e-13
1.86182e-12
2.12674e-12
1.60389e-12
2.2519e-12
2.64892e-12
2.6873e-12
3.40168e-12
3.06421e-12
3.57488e-12
2.68963e-12
1.95769e-12
8.61996e-13
1.73148e-12
1.24704e-12
1.39093e-12
1.19912e-12
2.7672e-12
2.15926e-12
2.00655e-12
7.7996e-13
1.98952e-13
-3.52787e-13
7.00506e-13
1.22592e-12
2.45595e-12
2.61918e-12
2.24032e-12
1.03739e-12
2.60921e-12
2.95868e-12
1.49404e-12
3.05027e-12
4.54076e-12
3.67822e-12
3.55272e-12
1.93252e-12
3.39925e-12
2.6232e-12
1.76417e-12
1.04763e-12
1.38698e-12
1.47963e-12
2.99124e-12
3.07302e-12
4.35239e-12
3.45129e-12
2.61444e-12
1.87533e-12
3.38412e-12
1.75718e-12
1.84127e-12
2.67496e-12
2.6787e-12
2.29139e-12
1.81044e-12
1.31218e-12
1.40372e-12
7.26141e-13
1.22558e-12
4.06567e-13
1.53306e-12
1.19939e-12
1.4068e-12
1.31327e-12
2.10137e-12
1.87768e-12
1.47438e-12
1.84745e-12
2.01942e-12
1.36572e-12
1.80418e-12
1.34535e-12
8.38405e-13
-9.83934e-14
2.84216e-14
-1.66932e-12
-2.01442e-12
-3.4772e-12
-3.39065e-12
-4.02406e-12
-3.54241e-12
-2.49152e-12
-2.79415e-12
-2.05018e-12
-2.06458e-12
-2.85458e-12
-2.33589e-12
-1.15797e-12
-1.13545e-12
-8.17028e-13
-1.86604e-12
-1.63273e-12
-1.91045e-12
-2.09729e-12
-1.84685e-12
-1.86183e-12
-3.25085e-12
-2.11238e-12
-2.42728e-12
-1.15933e-12
-1.30579e-12
1.03211e-13
1.27897e-13
-3.59308e-13
-7.16331e-13
-8.64645e-13
-8.67048e-13
-8.50879e-13
-4.07087e-13
3.8598e-13
8.48916e-13
1.84676e-12
2.03436e-12
3.55397e-12
5.40001e-12
3.74839e-12
2.69512e-12
2.81461e-12
2.87565e-12
3.10355e-12
1.24674e-12
4.4904e-13
2.7932e-13
-1.05249e-12
-1.89817e-12
-1.47394e-12
-1.04683e-12
-1.90378e-12
-1.53419e-12
-4.56006e-13
-1.13842e-13
-1.61625e-12
-1.94126e-12
-2.76656e-12
-2.36224e-12
-2.05573e-12
-1.54922e-12
-8.5265e-14
-1.7475e-13
-3.69483e-13
-2.70006e-13
-3.3942e-13
8.933e-13
8.19416e-13
2.14357e-12
1.5551e-12
1.27397e-12
1.74377e-12
1.87185e-12
2.08721e-12
2.32732e-12
1.56905e-12
8.79274e-13
1.53382e-12
1.59738e-13
-4.30193e-14
2.70006e-13
1.12292e-12
1.00355e-12
1.21077e-12
8.71441e-13
5.94651e-13
-3.49945e-13
-5.44701e-13
-8.76153e-13
-1.95919e-12
-2.15326e-12
-2.11454e-12
-1.84806e-12
-1.32182e-12
-2.44976e-12
-1.36644e-12
-3.11664e-12
-3.40467e-12
-2.96506e-12
-2.2109e-12
-2.29487e-12
-2.67179e-12
-1.9734e-12
-1.62249e-12
-2.88926e-13
-2.28477e-13
1.47834e-13
9.87879e-13
8.56793e-14
5.25126e-13
2.80957e-13
1.98952e-13
4.38166e-13
4.15779e-13
-6.72801e-14
-5.46345e-13
-6.68272e-13
-1.18068e-12
-2.2074e-12
-1.95491e-12
-2.71941e-12
-2.20901e-12
-1.31338e-12
-9.94748e-14
-3.84753e-13
2.84207e-14
-2.06086e-13
3.01447e-13
8.56035e-13
1.08514e-12
2.24462e-12
2.63858e-12
2.15482e-12
1.49996e-12
1.14245e-12
1.88939e-12
1.08132e-12
1.26477e-12
1.39148e-12
3.61147e-13
7.83288e-13
6.98294e-13
7.59988e-13
1.5219e-12
6.19471e-13
1.18626e-12
6.28696e-13
-2.42986e-13
-6.01183e-13
-1.67778e-12
-2.52729e-12
-9.69158e-13
-9.31347e-14
1.16006e-12
1.82763e-12
6.04601e-13
1.02001e-12
1.87229e-13
4.74401e-13
-5.68437e-14
2.56235e-13
2.29322e-13
5.10651e-13
1.10303e-12
1.40772e-12
7.19674e-13
7.33457e-13
-1.27898e-13
-3.5206e-13
4.26333e-14
-2.66532e-13
1.61225e-13
1.34551e-12
2.67148e-12
1.4175e-12
3.55271e-13
9.48335e-13
5.20784e-13
1.17278e-12
9.64219e-13
1.37547e-12
2.31963e-12
2.236e-12
3.58896e-12
3.51291e-12
3.15899e-12
2.6343e-12
2.98546e-12
2.57402e-12
3.80001e-12
2.88584e-12
2.08152e-12
2.73157e-12
3.92086e-12
3.81686e-12
3.7282e-12
2.03317e-12
1.44579e-12
3.26849e-13
-5.36051e-13
-3.80204e-13
-5.45146e-13
-1.66159e-12
-1.43192e-12
-1.56387e-12
-9.21917e-13
-1.40987e-12
-2.6761e-13
-1.08501e-12
-1.5929e-12
-1.17071e-12
-3.6144e-13
-1.149e-12
-9.4565e-13
-8.28026e-13
1.83206e-13
1.03791e-12
1.57724e-12
8.16523e-13
1.91114e-12
2.35938e-12
2.11659e-12
2.4497e-12
2.92413e-12
3.19148e-12
1.28782e-12
2.71298e-12
2.09253e-12
1.72294e-12
1.89984e-12
1.59384e-12
5.68434e-13
1.32627e-13
1.15753e-12
3.2685e-13
2.71527e-13
6.66242e-13
1.34854e-12
1.81465e-12
1.98552e-12
1.65705e-12
1.51673e-12
2.38795e-12
1.59405e-12
2.13446e-12
3.3354e-12
3.77524e-12
3.49653e-12
4.41706e-12
3.56047e-12
2.67078e-12
3.06966e-12
2.13314e-12
2.09529e-12
1.48987e-12
6.91303e-13
-6.39488e-13
-8.207e-13
-7.01867e-13
-4.67882e-13
4.79081e-14
1.6821e-12
2.32523e-12
2.75997e-12
3.88486e-12
3.60472e-12
4.26456e-12
3.73351e-12
3.46401e-12
4.03619e-12
2.54883e-12
2.21516e-12
2.63256e-12
1.28085e-12
1.64055e-12
1.632e-12
2.41084e-12
2.53051e-12
2.5363e-12
2.61894e-12
2.39779e-12
2.76894e-12
2.01384e-12
2.49136e-12
2.70085e-12
2.68782e-12
2.75896e-12
2.62951e-12
2.00059e-12
7.77034e-13
8.81073e-13
1.31279e-12
1.38924e-12
3.37984e-12
3.68037e-12
3.1287e-12
2.84578e-12
2.19541e-12
2.36824e-12
2.824e-12
2.49225e-12
2.40646e-12
3.65616e-12
1.2754e-12
-1.98952e-13
4.83169e-13
-1.38173e-12
-5.64947e-13
-9.95957e-13
-1.09815e-12
-1.21372e-12
-2.18977e-12
-2.97984e-12
-2.98065e-12
-4.6578e-12
-3.01128e-12
-2.57159e-12
-3.13408e-12
-3.49664e-12
-3.11928e-12
-3.02597e-12
-1.21191e-12
-1.33879e-12
1.07594e-13
1.13159e-12
1.3851e-12
2.49065e-12
4.58304e-13
-5.25391e-13
-1.57198e-12
-7.1938e-13
-1.72405e-12
-2.15753e-12
-2.44726e-12
-2.52023e-12
-2.22244e-12
-2.258e-12
-4.33434e-12
-4.24253e-12
-4.33013e-12
-4.35821e-12
-2.53218e-12
-1.33816e-12
-1.3424e-12
-1.3135e-12
-2.70007e-13
8.59008e-14
-8.1648e-13
-1.62387e-12
-9.94443e-13
-6.0193e-13
-6.20653e-13
-3.20823e-14
-7.31295e-13
-3.31734e-13
2.49807e-13
-6.93085e-13
-7.57483e-13
-1.1149e-12
-2.16127e-12
-2.04385e-12
-2.31356e-12
-3.49113e-12
-3.48366e-12
-4.38764e-12
-2.9947e-12
-4.00558e-12
-3.31528e-12
-4.1387e-12
-3.95064e-12
-2.47141e-12
-3.22671e-12
-2.46407e-12
-1.96092e-12
-3.73741e-12
-2.13335e-12
-2.06296e-12
-1.29868e-12
-1.32949e-12
4.36097e-13
1.18797e-12
2.41917e-12
4.46248e-12
6.38739e-12
8.6074e-12
1.09418e-11
1.47743e-11
1.93509e-11
2.50855e-11
3.60902e-11
5.57823e-11
8.1958e-11
1.23974e-10
1.93093e-10
3.04657e-10
4.83381e-10
7.62429e-10
1.19793e-09
1.8745e-09
2.92656e-09
4.55166e-09
7.05317e-09
1.0889e-08
1.67521e-08
2.56778e-08
3.92125e-08
5.96564e-08
9.04174e-08
1.36518e-07
2.05339e-07
3.07667e-07
4.59208e-07
6.82723e-07
1.01106e-06
1.49142e-06
2.19126e-06
3.20667e-06
4.67378e-06
6.78461e-06
9.80872e-06
1.41228e-05
2.02505e-05
2.89167e-05
4.11193e-05
5.82261e-05
8.21014e-05
0.000115275
0.000161159
0.000224337
0.000310929
0.000429064
0.000589484
0.000806304
0.00109797
0.00148844
0.00200869
0.00269848
0.00360861
0.00480354
0.00636461
0.00839379
0.0110181
0.0143949
0.0187175
0.0242223
0.0311959
0.0399837
0.050999
0.0647326
0.081763
0.102767
0.12853
0.159957
0.198081
0.244072
0.299244
0.365057
0.443124
0.535204
0.6432
0.769149
0.91521
1.08365
1.2768
1.49706
1.74686
2.02862
2.3447
2.69741
3.08893
3.52128
3.99632
4.51568
5.08076
5.69269
6.35231
7.0602
7.81661
8.6215
9.47456
10.3752
11.3225
12.3154
13.3525
14.4323
15.5531
16.713
17.9102
19.1424
20.4076
21.7037
23.0285
24.3799
25.7556
27.1538
28.5723
30.0093
31.4629
32.9313
34.413
35.9064
37.41
38.9227
40.4431
41.9701
43.5028
45.0403
46.5818
48.1265
49.6739
51.2233
52.7744
54.3267
55.8798
57.4335
58.9875
60.5416
62.0956
63.6495
65.2031
66.7563
68.3092
69.8615
71.4134
72.9649
74.5159
76.0665
77.6166
79.1664
80.7159
82.265
83.8139
85.3626
86.9112
88.4597
90.0081
91.5566
93.1051
94.6538
96.2027
97.7518
99.3012
100.851
102.401
103.952
105.503
107.055
108.607
110.16
111.714
113.268
114.823
116.379
117.936
119.494
121.053
122.613
124.174
125.736
127.299
128.863
130.429
131.995
133.563
135.132
136.702
138.274
139.847
141.421
142.997
144.574
146.152
147.732
149.313
150.896
152.48
154.065
155.652
157.241
158.831
160.423
162.016
163.61
165.207
166.805
168.405
170.006
171.609
173.214
174.82
176.429
178.039
179.651
181.265
182.881
184.499
186.119
187.741
189.365
190.991
192.62
194.251
195.884
197.519
199.157
200.797
202.439
204.084
205.732
207.382
209.035
210.69
212.349
214.01
215.673
217.34
219.01
220.682
222.358
224.036
225.718
227.402
229.09
230.781
232.476
234.173
235.874
237.579
239.287
240.998
242.713
244.431
246.153
247.879
249.608
251.342
253.079
254.82
256.565
258.314
260.067
261.824
263.586
265.352
267.122
268.897
270.676
272.459
274.248
276.041
277.839
279.641
281.449
283.262
285.08
286.903
288.731
290.565
292.404
294.249
296.099
297.955
299.817
301.685
303.559
305.439
307.326
309.219
311.118
313.024
314.937
316.856
318.782
320.716
322.656
324.604
326.56
328.523
330.493
332.472
334.459
336.454
338.457
340.469
342.49
344.52
346.559
348.608
350.665
352.733
354.81
356.898
358.995
361.103
363.222
365.353
367.496
369.651
371.817
373.995
376.186
378.388
380.603
382.831
385.072
387.332
389.606
391.895
394.196
396.515
398.85
401.204
403.572
405.96
408.364
410.79
413.233
415.698
418.182
420.688
423.216
425.768
428.343
430.943
433.568
436.22
438.899
441.606
444.344
447.111
449.911
452.743
455.61
458.51
461.446
464.415
467.42
470.455
473.521
476.61
479.719
482.304
484.857
487.367
489.835
492.271
494.688
497.093
499.501
501.911
504.334
506.761
509.2
511.638
514.082
516.519
518.958
521.387
523.815
526.233
528.65
531.059
533.469
535.871
538.271
540.661
543.049
545.43
547.804
550.172
552.531
554.882
557.223
559.555
561.876
564.189
566.489
568.78
571.059
573.327
575.579
577.817
580.038
582.244
584.433
586.609
588.77
590.917
593.044
595.15
597.228
599.28
601.305
603.307
605.291
607.259
609.208
611.137
613.036
614.898
616.714
618.482
620.2
621.87
623.495
625.078
626.621
628.127
629.592
631.01
632.371
633.661
634.865
635.962
636.94
637.787
638.488
639.033
639.426
639.682
639.796
639.82
639.748
639.406
638.666
637.536
636.043
634.201
631.999
629.458
626.58
623.383
619.857
616.04
611.959
607.688
603.292
598.789
595.177
594.133
)
;

boundaryField
{
    sideLeft
    {
        type            symmetryPlane;
        value           uniform 0;
    }
    sideRight
    {
        type            calculated;
        value           uniform 2770.79;
    }
    topbottom
    {
        type            empty;
        value           nonuniform 0();
    }
    frontback
    {
        type            empty;
        value           nonuniform 0();
    }
}


// ************************************************************************* //
