/*--------------------------------*- C++ -*----------------------------------*\
| =========                 |                                                 |
| \\      /  F ield         | OpenFOAM: The Open Source CFD Toolbox           |
|  \\    /   O peration     | Version:  2.4.0                                 |
|   \\  /    A nd           | Web:      www.OpenFOAM.org                      |
|    \\/     M anipulation  |                                                 |
\*---------------------------------------------------------------------------*/
FoamFile
{
    version     2.0;
    format      ascii;
    class       volScalarField;
    location    "0.12";
    object      pMean;
}
// * * * * * * * * * * * * * * * * * * * * * * * * * * * * * * * * * * * * * //

dimensions      [1 -1 -2 0 0 0 0];

internalField   nonuniform List<scalar> 
1000
(
5e+06
5e+06
5e+06
5e+06
5e+06
5e+06
5e+06
5e+06
5e+06
5e+06
5e+06
5e+06
5e+06
5e+06
5e+06
5e+06
5e+06
5e+06
5e+06
5e+06
5e+06
5e+06
5e+06
5e+06
5e+06
5e+06
5e+06
5e+06
5e+06
5e+06
5e+06
5e+06
5e+06
5e+06
5e+06
5e+06
5e+06
5e+06
5e+06
5e+06
5e+06
5e+06
5e+06
5e+06
5e+06
5e+06
5e+06
5e+06
5e+06
5e+06
5e+06
5e+06
5e+06
5e+06
5e+06
5e+06
5e+06
5e+06
5e+06
5e+06
5e+06
5e+06
5e+06
5e+06
5e+06
5e+06
5e+06
5e+06
5e+06
5e+06
5e+06
5e+06
5e+06
5e+06
5e+06
5e+06
5e+06
5e+06
5e+06
5e+06
5e+06
5e+06
5e+06
5e+06
5e+06
5e+06
5e+06
5e+06
5e+06
5e+06
5e+06
5e+06
5e+06
5e+06
5e+06
5e+06
5e+06
5e+06
5e+06
5e+06
5e+06
5e+06
5e+06
5e+06
5e+06
5e+06
5e+06
5e+06
5e+06
5e+06
5e+06
5e+06
5e+06
5e+06
5e+06
5e+06
5e+06
5e+06
5e+06
5e+06
5e+06
5e+06
5e+06
5e+06
5e+06
5e+06
5e+06
5e+06
5e+06
5e+06
5e+06
5e+06
5e+06
5e+06
5e+06
5e+06
5e+06
5e+06
5e+06
5e+06
5e+06
5e+06
5e+06
5e+06
5e+06
5e+06
5e+06
5e+06
5e+06
5e+06
5e+06
5e+06
5e+06
5e+06
5e+06
5e+06
5e+06
5e+06
5e+06
5e+06
5e+06
5e+06
5e+06
5e+06
5e+06
5e+06
5e+06
5e+06
5e+06
5e+06
5e+06
5e+06
5e+06
5e+06
5e+06
5e+06
5e+06
5e+06
5e+06
5e+06
5e+06
5e+06
5e+06
5e+06
5e+06
5e+06
5e+06
5e+06
5e+06
5e+06
5e+06
5e+06
5e+06
5e+06
5e+06
5e+06
5e+06
5e+06
5e+06
5e+06
5e+06
5e+06
5e+06
5e+06
5e+06
5e+06
5e+06
5e+06
5e+06
5e+06
5e+06
5e+06
5e+06
5e+06
5e+06
5e+06
5e+06
5e+06
5e+06
5e+06
5e+06
5e+06
5e+06
5e+06
5e+06
5e+06
5e+06
5e+06
5e+06
5e+06
5e+06
5e+06
5e+06
5e+06
5e+06
5e+06
5e+06
5e+06
5e+06
5e+06
5e+06
5e+06
5e+06
5e+06
5e+06
5e+06
5e+06
5e+06
5e+06
5e+06
5e+06
5e+06
5e+06
5e+06
5e+06
5e+06
5e+06
5e+06
5e+06
5e+06
5e+06
5e+06
5e+06
5e+06
5e+06
5e+06
5e+06
5e+06
5e+06
5e+06
5e+06
5e+06
5e+06
5e+06
5e+06
5e+06
5e+06
5e+06
5e+06
5e+06
5e+06
5e+06
5e+06
5e+06
5e+06
5e+06
5e+06
5e+06
5e+06
5e+06
5e+06
5e+06
5e+06
5e+06
5e+06
5e+06
5e+06
5e+06
5e+06
5e+06
5e+06
5e+06
5e+06
5e+06
5e+06
5e+06
5e+06
5e+06
5e+06
5e+06
5e+06
5e+06
5e+06
5e+06
5e+06
5e+06
5e+06
5e+06
5e+06
5e+06
5e+06
5e+06
5e+06
5e+06
5e+06
5e+06
5e+06
5e+06
5e+06
5e+06
5e+06
5e+06
5e+06
5e+06
5e+06
5e+06
5e+06
5e+06
5e+06
5e+06
5e+06
5e+06
5e+06
5e+06
5e+06
5e+06
5e+06
5e+06
5e+06
5e+06
5e+06
5e+06
5e+06
5e+06
5e+06
5e+06
5e+06
5e+06
5e+06
5e+06
5e+06
5e+06
5e+06
5e+06
5e+06
5e+06
5e+06
5e+06
5e+06
5e+06
5e+06
5e+06
5e+06
5e+06
5e+06
5e+06
5e+06
5e+06
5e+06
5e+06
5e+06
5e+06
5e+06
5e+06
5e+06
5e+06
5e+06
5e+06
5e+06
5e+06
5e+06
5e+06
5e+06
5e+06
5e+06
5e+06
5e+06
5e+06
5e+06
5e+06
5e+06
5e+06
5e+06
5e+06
5e+06
5e+06
5e+06
5e+06
5e+06
5e+06
5e+06
5e+06
5e+06
5e+06
5e+06
5e+06
5e+06
5e+06
5e+06
5e+06
5e+06
5e+06
5e+06
5e+06
5e+06
5e+06
5e+06
5e+06
5e+06
5e+06
5e+06
5e+06
5e+06
5e+06
5e+06
5e+06
5e+06
5e+06
5e+06
5e+06
5e+06
5e+06
5e+06
5e+06
5e+06
5e+06
5e+06
5e+06
5e+06
5e+06
5e+06
5e+06
5e+06
5e+06
5e+06
5e+06
5e+06
5e+06
5e+06
5e+06
5e+06
5e+06
5e+06
5e+06
5e+06
5e+06
5e+06
5e+06
5e+06
5e+06
5e+06
5e+06
5e+06
5e+06
5e+06
5e+06
5e+06
5e+06
5e+06
5e+06
5e+06
5e+06
5e+06
5e+06
5e+06
5e+06
5e+06
5e+06
5e+06
5e+06
5e+06
5e+06
5e+06
5e+06
5e+06
5e+06
5e+06
5e+06
5e+06
5e+06
5e+06
5e+06
5e+06
5e+06
5e+06
5e+06
5e+06
5e+06
5e+06
5e+06
5e+06
5e+06
5e+06
5e+06
5e+06
5e+06
5e+06
5e+06
5e+06
5e+06
5e+06
5e+06
5e+06
5e+06
5e+06
5e+06
5e+06
5e+06
5e+06
5e+06
5e+06
5e+06
5e+06
5e+06
5e+06
5e+06
5e+06
5e+06
5e+06
5e+06
5e+06
5e+06
5e+06
5e+06
5e+06
5e+06
5e+06
5e+06
5e+06
5e+06
5e+06
5e+06
5e+06
5e+06
5e+06
5e+06
5e+06
5e+06
5e+06
5e+06
5e+06
5e+06
5e+06
5e+06
5e+06
5e+06
5e+06
5e+06
5e+06
5e+06
5e+06
5e+06
5e+06
5e+06
5e+06
5e+06
5e+06
5e+06
5e+06
5e+06
5e+06
5e+06
5e+06
5e+06
5e+06
5e+06
5e+06
5e+06
5e+06
5e+06
5e+06
5e+06
5e+06
5e+06
5e+06
5e+06
5e+06
5e+06
5e+06
5e+06
5e+06
5e+06
5e+06
5e+06
5e+06
5e+06
5e+06
5e+06
5e+06
4.99999e+06
4.99999e+06
4.99999e+06
4.99999e+06
4.99999e+06
4.99998e+06
4.99998e+06
4.99997e+06
4.99996e+06
4.99996e+06
4.99995e+06
4.99993e+06
4.99992e+06
4.9999e+06
4.99988e+06
4.99986e+06
4.99983e+06
4.9998e+06
4.99977e+06
4.99973e+06
4.99968e+06
4.99962e+06
4.99956e+06
4.99949e+06
4.99942e+06
4.99933e+06
4.99923e+06
4.99912e+06
4.999e+06
4.99887e+06
4.99873e+06
4.99857e+06
4.99839e+06
4.9982e+06
4.998e+06
4.99778e+06
4.99754e+06
4.99728e+06
4.99701e+06
4.99671e+06
4.9964e+06
4.99607e+06
4.99571e+06
4.99534e+06
4.99494e+06
4.99453e+06
4.99409e+06
4.99363e+06
4.99315e+06
4.99264e+06
4.99211e+06
4.99156e+06
4.99099e+06
4.99039e+06
4.98977e+06
4.98912e+06
4.98845e+06
4.98776e+06
4.98705e+06
4.98631e+06
4.98555e+06
4.98476e+06
4.98395e+06
4.98311e+06
4.98226e+06
4.98137e+06
4.98047e+06
4.97954e+06
4.97858e+06
4.97761e+06
4.9766e+06
4.97558e+06
4.97453e+06
4.97346e+06
4.97236e+06
4.97124e+06
4.97009e+06
4.96892e+06
4.96773e+06
4.96651e+06
4.96527e+06
4.96401e+06
4.96272e+06
4.96141e+06
4.96007e+06
4.95871e+06
4.95733e+06
4.95592e+06
4.95449e+06
4.95303e+06
4.95155e+06
4.95005e+06
4.94852e+06
4.94697e+06
4.94539e+06
4.94379e+06
4.94217e+06
4.94052e+06
4.93885e+06
4.93715e+06
4.93544e+06
4.93369e+06
4.93192e+06
4.93013e+06
4.92832e+06
4.92648e+06
4.92461e+06
4.92272e+06
4.92081e+06
4.91887e+06
4.91691e+06
4.91493e+06
4.91292e+06
4.91088e+06
4.90882e+06
4.90674e+06
4.90463e+06
4.9025e+06
4.90034e+06
4.89816e+06
4.89596e+06
4.89373e+06
4.89147e+06
4.88919e+06
4.88689e+06
4.88456e+06
4.88221e+06
4.87983e+06
4.87743e+06
4.875e+06
4.87254e+06
4.87007e+06
4.86756e+06
4.86504e+06
4.86248e+06
4.85991e+06
4.8573e+06
4.85468e+06
4.85202e+06
4.84934e+06
4.84664e+06
4.84391e+06
4.84116e+06
4.83838e+06
4.83557e+06
4.83274e+06
4.82989e+06
4.82701e+06
4.8241e+06
4.82117e+06
4.81821e+06
4.81522e+06
4.81221e+06
4.80918e+06
4.80612e+06
4.80303e+06
4.79992e+06
4.79678e+06
4.79361e+06
4.79042e+06
4.7872e+06
4.78396e+06
4.78069e+06
4.77739e+06
4.77406e+06
4.77071e+06
4.76734e+06
4.76393e+06
4.7605e+06
4.75705e+06
4.75356e+06
4.75005e+06
4.74651e+06
4.74295e+06
4.73936e+06
4.73574e+06
4.73209e+06
4.72842e+06
4.72472e+06
4.72099e+06
4.71723e+06
4.71345e+06
4.70964e+06
4.7058e+06
4.70193e+06
4.69803e+06
4.69411e+06
4.69016e+06
4.68618e+06
4.68217e+06
4.67813e+06
4.67407e+06
4.66997e+06
4.66585e+06
4.6617e+06
4.65752e+06
4.65331e+06
4.64907e+06
4.6448e+06
4.6405e+06
4.63618e+06
4.63182e+06
4.62744e+06
4.62302e+06
4.61857e+06
4.6141e+06
4.60959e+06
4.60506e+06
4.60049e+06
4.59589e+06
4.59126e+06
4.58661e+06
4.58192e+06
4.57719e+06
4.57244e+06
4.56766e+06
4.56285e+06
4.558e+06
4.55312e+06
4.54821e+06
4.54327e+06
4.53829e+06
4.53329e+06
4.52825e+06
4.52318e+06
4.51807e+06
4.51293e+06
4.50776e+06
4.50256e+06
4.49732e+06
4.49205e+06
4.48674e+06
4.4814e+06
4.47603e+06
4.47062e+06
4.46517e+06
4.45969e+06
4.45418e+06
4.44863e+06
4.44304e+06
4.43742e+06
4.43176e+06
4.42607e+06
4.42034e+06
4.41457e+06
4.40877e+06
4.40292e+06
4.39704e+06
4.39112e+06
4.38517e+06
4.37917e+06
4.37314e+06
4.36707e+06
4.36095e+06
4.3548e+06
4.34861e+06
4.34237e+06
4.3361e+06
4.32978e+06
4.32343e+06
4.31703e+06
4.31058e+06
4.3041e+06
4.29757e+06
4.291e+06
4.28438e+06
4.27772e+06
4.27101e+06
4.26426e+06
4.25746e+06
4.25062e+06
4.24372e+06
4.23678e+06
4.22979e+06
4.22275e+06
4.21567e+06
4.20853e+06
4.20134e+06
4.19409e+06
4.1868e+06
4.17945e+06
4.17205e+06
4.16459e+06
4.15708e+06
4.14951e+06
4.14189e+06
4.13422e+06
4.12649e+06
4.11871e+06
4.11089e+06
4.10303e+06
4.09514e+06
4.08724e+06
4.07935e+06
4.07148e+06
4.06359e+06
4.05569e+06
4.04775e+06
4.03976e+06
4.03173e+06
4.02364e+06
4.0155e+06
4.00731e+06
3.99908e+06
3.99081e+06
3.98249e+06
3.97414e+06
3.96574e+06
3.95731e+06
3.94883e+06
3.94032e+06
3.93176e+06
3.92316e+06
3.91452e+06
3.90584e+06
3.89712e+06
3.88835e+06
3.87955e+06
3.87071e+06
3.86183e+06
3.85291e+06
3.84395e+06
3.83495e+06
3.82591e+06
3.81683e+06
3.80771e+06
3.79856e+06
3.78937e+06
3.78014e+06
3.77087e+06
3.76157e+06
3.75223e+06
3.74285e+06
3.73344e+06
3.724e+06
3.71452e+06
3.705e+06
3.69545e+06
3.68587e+06
3.67625e+06
3.66661e+06
3.65693e+06
3.64722e+06
3.63748e+06
3.62771e+06
3.61791e+06
3.60809e+06
3.59824e+06
3.58836e+06
3.57845e+06
3.56853e+06
3.55857e+06
3.5486e+06
3.53861e+06
3.5286e+06
3.51858e+06
3.50854e+06
3.49848e+06
3.48842e+06
3.47834e+06
3.46826e+06
3.45817e+06
3.44808e+06
3.43799e+06
3.4279e+06
3.41783e+06
3.40776e+06
3.39772e+06
3.38771e+06
3.37772e+06
3.36777e+06
3.35786e+06
3.34799e+06
3.33816e+06
3.3284e+06
3.31871e+06
3.30913e+06
3.29965e+06
3.2903e+06
3.28108e+06
3.272e+06
3.26306e+06
3.25427e+06
3.24563e+06
3.23712e+06
3.22875e+06
3.22047e+06
3.21225e+06
3.20402e+06
3.19552e+06
3.18623e+06
)
;

boundaryField
{
    sideLeft
    {
        type            symmetryPlane;
    }
    sideRight
    {
        type            calculated;
        value           uniform 3.17977e+06;
    }
    topbottom
    {
        type            empty;
    }
    frontback
    {
        type            empty;
    }
}


// ************************************************************************* //
