/*--------------------------------*- C++ -*----------------------------------*\
| =========                 |                                                 |
| \\      /  F ield         | OpenFOAM: The Open Source CFD Toolbox           |
|  \\    /   O peration     | Version:  2.4.0                                 |
|   \\  /    A nd           | Web:      www.OpenFOAM.org                      |
|    \\/     M anipulation  |                                                 |
\*---------------------------------------------------------------------------*/
FoamFile
{
    version     2.0;
    format      ascii;
    class       volScalarField;
    location    "0.12";
    object      T.air;
}
// * * * * * * * * * * * * * * * * * * * * * * * * * * * * * * * * * * * * * //

dimensions      [0 0 0 1 0 0 0];

internalField   nonuniform List<scalar> 
1000
(
300
300
300
300
300
300
300
300
300
300
300
300
300
300
300
300
300
300
300
300
300
300
300
300
300
300
300
300
300
300
300
300
300
300
300
300
300
300
300
300
300
300
300
300
300
300
300
300
300
300
300
300
300
300
300
300
300
300
300
300
300
300
300
300
300
300
300
300
300
300
300
300
300
300
300
300
300
300
300
300
300
300
300
300
300
300
300
300
300
300
300
300
300
300
300
300
300
300
300
300
300
300
300
300
300
300
300
300
300
300
300
300
300
300
300
300
300
300
300
300
300
300
300
300
300
300
300
300
300
300
300
300
300
300
300
300
300
300
300
300
300
300
300
300
300
300
300
300
300
300
300
300
300
300
300
300
300
300
300
300
300
300
300
300
300
300
300
300
300
300
300
300
300
300
300
300
300
300
300
300
300
300
300
300
300
300
300
300
300
300
300
300
300
300
300
300
300
300
300
300
300
300
300
300
300
300
300
300
300
300
300
300
300
300
300
300
300
300
300
300
300
300
300
300
300
300
300
300
300
300
300
300
300
300
300
300
300
300
300
300
300
300
300
300
300
300
300
300
300
300
300
300
300
300
300
300
300
300
300
300
300
300
300
300
300
300
300
300
300
300
300
300
300
300
300
300
300
300
300
300
300
300
300
300
300
300
300
300
300
300
300
300
300
300
300
300
300
300
300
300
300
300
300
300
300
300
300
300
300
300
300
300
300
300
300
300
300
300
300
300
300
300
300
300
300
300
300
300
300
300
300
300
300
300
300
300
300
300
300
300
300
300
300
300
300
300
300
300
300
300
300
300
300
300
300
300
300
300
300
300
300
300
300
300
300
300
300
300
300
300
300
300
300
300
300
300
300
300
300
300
300
300
300
300
300
300
300
300
300
300
300
300
300
300
300
300
300
300
300
300
300
300
300
300
300
300
300
300
300
300
300
300
300
300
300
300
300
300
300
300
300
300
300
300
300
300
300
300
300
300
300
300
300
300
300
300
300
300
300
300
300
300
300
300
300
300
300
300
300
300
300
300
300
300
300
300
300
300
300
300
300
300
300
300
300
300
300
300
300
300
300
300
300
300
300
300
300
300
300
300
300
300
300
300
300
300
300
300
300
300
300
300
300
300
300
300
300
300
300
300
300
300
300
300
300
300
300
300
300
300
300
300
300
300
300
300
300
300
300
300
300
300
300
300
300
300
300
300
300
300
300
300
300
300
300
300
300
300
300
300
300
300
300
300
300
300
300
300
300
300
300
300
300
300
300
300
300
300
300
300
300
300
300
300
300
300
300
300
300
300
300
300
300
300
300
300
300
300
300
300
300
300
300
300
300
300
300
300
300
300
300
300
300
300
300
300
300
300
300
300
300
300
299.999
299.999
299.999
299.999
299.998
299.998
299.997
299.997
299.996
299.995
299.994
299.992
299.991
299.989
299.986
299.983
299.98
299.976
299.971
299.966
299.96
299.953
299.944
299.935
299.925
299.914
299.901
299.887
299.871
299.854
299.835
299.815
299.793
299.769
299.744
299.717
299.688
299.657
299.625
299.591
299.555
299.518
299.479
299.439
299.397
299.354
299.31
299.264
299.217
299.169
299.12
299.07
299.019
298.967
298.914
298.861
298.807
298.752
298.697
298.642
298.585
298.529
298.472
298.414
298.357
298.299
298.24
298.182
298.123
298.064
298.005
297.946
297.886
297.827
297.767
297.707
297.647
297.587
297.526
297.466
297.405
297.344
297.284
297.223
297.162
297.1
297.039
296.978
296.916
296.854
296.792
296.73
296.668
296.606
296.544
296.481
296.419
296.356
296.293
296.23
296.167
296.104
296.04
295.977
295.913
295.849
295.785
295.721
295.657
295.593
295.528
295.463
295.398
295.333
295.268
295.203
295.138
295.072
295.006
294.94
294.874
294.808
294.742
294.675
294.608
294.542
294.475
294.407
294.34
294.273
294.205
294.137
294.069
294.001
293.933
293.865
293.796
293.727
293.658
293.589
293.52
293.451
293.381
293.312
293.242
293.172
293.101
293.031
292.961
292.89
292.819
292.748
292.677
292.605
292.534
292.462
292.39
292.318
292.246
292.174
292.101
292.028
291.955
291.882
291.809
291.735
291.661
291.587
291.513
291.439
291.364
291.29
291.215
291.139
291.064
290.989
290.913
290.837
290.761
290.684
290.607
290.531
290.454
290.376
290.299
290.221
290.143
290.065
289.986
289.908
289.829
289.749
289.67
289.59
289.51
289.43
289.35
289.269
289.188
289.107
289.026
288.944
288.862
288.78
288.697
288.614
288.531
288.448
288.364
288.28
288.196
288.111
288.026
287.941
287.855
287.77
287.683
287.597
287.51
287.424
287.335
287.249
287.157
287.074
286.978
286.898
286.795
286.723
286.611
286.545
286.426
286.364
286.241
286.18
286.056
285.994
285.869
285.806
285.68
285.617
285.489
285.425
285.297
285.232
285.102
285.036
284.905
284.839
284.706
284.639
284.505
284.438
284.302
284.233
284.096
284.026
283.89
283.813
283.683
283.597
283.474
283.378
283.259
283.16
283.038
282.942
282.812
282.72
282.585
282.493
282.354
282.263
282.119
282.029
281.88
281.791
281.636
281.548
281.389
281.3
281.138
281.047
280.88
280.789
280.618
280.524
280.349
280.254
280.075
279.977
279.793
279.693
279.505
279.403
279.211
279.107
278.911
278.808
278.611
278.218
278.022
277.629
277.432
277.038
276.838
276.437
276.232
275.821
275.61
275.188
274.972
274.538
274.317
273.874
273.648
273.196
272.966
272.504
272.27
271.799
271.56
271.08
270.836
270.346
270.098
269.601
269.343
268.846
268.575
268.076
267.796
267.293
267.006
266.498
266.203
265.691
265.389
264.874
264.563
264.048
263.726
263.213
262.879
262.368
262.024
261.512
261.162
260.648
260.293
259.777
259.418
258.9
258.536
258.016
257.648
257.126
256.755
256.234
255.861
255.341
254.968
254.449
254.077
253.557
253.186
252.668
252.295
251.783
251.409
250.902
250.538
250.033
249.683
249.187
248.848
248.372
248.039
247.584
247.261
246.817
246.517
246.098
245.833
245.454
245.224
244.886
244.693
244.4
244.244
243.997
243.876
243.672
243.582
243.415
243.34
243.142
243.282
243.544
)
;

boundaryField
{
    sideLeft
    {
        type            symmetryPlane;
    }
    sideRight
    {
        type            zeroGradient;
    }
    topbottom
    {
        type            empty;
    }
    frontback
    {
        type            empty;
    }
}


// ************************************************************************* //
