/*--------------------------------*- C++ -*----------------------------------*\
| =========                 |                                                 |
| \\      /  F ield         | OpenFOAM: The Open Source CFD Toolbox           |
|  \\    /   O peration     | Version:  2.4.0                                 |
|   \\  /    A nd           | Web:      www.OpenFOAM.org                      |
|    \\/     M anipulation  |                                                 |
\*---------------------------------------------------------------------------*/
FoamFile
{
    version     2.0;
    format      ascii;
    class       volScalarField;
    location    "0.12";
    object      T.water;
}
// * * * * * * * * * * * * * * * * * * * * * * * * * * * * * * * * * * * * * //

dimensions      [0 0 0 1 0 0 0];

internalField   nonuniform List<scalar> 
1000
(
300
300
300
300
300
300
300
300
300
300
300
300
300
300
300
300
300
300
300
300
300
300
300
300
300
300
300
300
300
300
300
300
300
300
300
300
300
300
300
300
300
300
300
300
300
300
300
300
300
300
300
300
300
300
300
300
300
300
300
300
300
300
300
300
300
300
300
300
300
300
300
300
300
300
300
300
300
300
300
300
300
300
300
300
300
300
300
300
300
300
300
300
300
300
300
300
300
300
300
300
300
300
300
300
300
300
300
300
300
300
300
300
300
300
300
300
300
300
300
300
300
300
300
300
300
300
300
300
300
300
300
300
300
300
300
300
300
300
300
300
300
300
300
300
300
300
300
300
300
300
300
300
300
300
300
300
300
300
300
300
300
300
300
300
300
300
300
300
300
300
300
300
300
300
300
300
300
300
300
300
300
300
300
300
300
300
300
300
300
300
300
300
300
300
300
300
300
300
300
300
300
300
300
300
300
300
300
300
300
300
300
300
300
300
300
300
300
300
300
300
300
300
300
300
300
300
300
300
300
300
300
300
300
300
300
300
300
300
300
300
300
300
300
300
300
300
300
300
300
300
300
300
300
300
300
300
300
300
300
300
300
300
300
300
300
300
300
300
300
300
300
300
300
300
300
300
300
300
300
300
300
300
300
300
300
300
300
300
300
300
300
300
300
300
300
300
300
300
300
300
300
300
300
300
300
300
300
300
300
300
300
300
300
300
300
300
300
300
300
300
300
300
300
300
300
300
300
300
300
300
300
300
300
300
300
300
300
300
300
300
300
300
300
300
300
300
300
300
300
300
300
300
300
300
300
300
300
300
300
300
300
300
300
300
300
300
300
300
300
300
300
300
300
300
300
300
300
300
300
300
300
300
300
300
300
300
300
300
300
300
300
300
300
300
300
300
300
300
300
300
300
300
300
300
300
300
300
300
300
300
300
300
300
300
300
300
300
300
300
300
300
300
300
300
300
300
300
300
300
300
300
300
300
300
300
300
300
300
300
300
300
300
300
300
300
300
300
300
300
300
300
300
300
300
300
300
300
300
300
300
300
300
300
300
300
300
300
300
300
300
300
300
300
300
300
300
300
300
300
300
300
300
300
300
300
300
300
300
300
300
300
300
300
300
300
300
300
300
300
300
300
300
300
300
300
300
300
300
300
300
300
300
300
300
300
300
300
300
300
300
300
300
300
300
300
300
300
300
300
300
300
300
300
300
300
300
300
300
300
300
300
300
300
300
300
300
300
300
300
300
300
300
300
300
300
300
300
300
300
300
300
300
300
300
300
300
300
300
300
300
300
300
300
300
300
300
300
300
300
300
300
300
300
300
300
300
300
300
300
300
300
300
300
300
300
300
300
300
300
300
300
300
299.999
299.999
299.999
299.999
299.998
299.998
299.997
299.997
299.996
299.995
299.993
299.992
299.99
299.988
299.985
299.982
299.979
299.975
299.97
299.964
299.958
299.95
299.942
299.932
299.922
299.91
299.897
299.882
299.866
299.849
299.829
299.809
299.786
299.762
299.736
299.708
299.679
299.648
299.615
299.581
299.545
299.507
299.468
299.428
299.386
299.342
299.297
299.251
299.204
299.156
299.107
299.057
299.005
298.953
298.901
298.847
298.793
298.739
298.683
298.628
298.571
298.515
298.458
298.401
298.343
298.285
298.227
298.168
298.11
298.051
297.992
297.932
297.873
297.813
297.754
297.694
297.634
297.574
297.513
297.453
297.392
297.332
297.271
297.21
297.149
297.088
297.027
296.965
296.904
296.842
296.78
296.718
296.656
296.594
296.532
296.47
296.407
296.344
296.282
296.219
296.156
296.092
296.029
295.966
295.902
295.838
295.774
295.71
295.646
295.582
295.517
295.453
295.388
295.323
295.258
295.192
295.127
295.062
294.996
294.93
294.864
294.798
294.732
294.665
294.598
294.532
294.465
294.398
294.33
294.263
294.195
294.128
294.06
293.992
293.923
293.855
293.787
293.718
293.649
293.58
293.511
293.442
293.372
293.302
293.233
293.163
293.092
293.022
292.952
292.881
292.81
292.739
292.668
292.597
292.525
292.454
292.382
292.31
292.238
292.165
292.093
292.02
291.947
291.874
291.8
291.727
291.653
291.579
291.505
291.431
291.356
291.282
291.207
291.132
291.056
290.981
290.905
290.829
290.753
290.677
290.6
290.523
290.446
290.369
290.291
290.214
290.136
290.057
289.979
289.9
289.822
289.742
289.663
289.583
289.504
289.423
289.343
289.262
289.181
289.1
289.019
288.937
288.855
288.773
288.69
288.608
288.525
288.441
288.358
288.274
288.189
288.105
288.02
287.935
287.849
287.764
287.677
287.591
287.504
287.417
287.329
287.243
287.151
287.068
286.972
286.893
286.79
286.717
286.605
286.539
286.42
286.359
286.236
286.174
286.051
285.988
285.863
285.801
285.675
285.611
285.484
285.42
285.291
285.227
285.097
285.031
284.9
284.834
284.701
284.634
284.5
284.433
284.297
284.228
284.091
284.021
283.885
283.808
283.678
283.592
283.469
283.374
283.255
283.156
283.033
282.937
282.808
282.715
282.58
282.489
282.349
282.259
282.114
282.025
281.875
281.787
281.632
281.544
281.385
281.296
281.133
281.043
280.876
280.785
280.614
280.52
280.345
280.25
280.071
279.973
279.789
279.69
279.501
279.399
279.207
279.103
278.908
278.804
278.608
278.215
278.018
277.626
277.429
277.034
276.834
276.433
276.229
275.817
275.607
275.184
274.968
274.535
274.314
273.87
273.645
273.193
272.962
272.501
272.266
271.796
271.556
271.076
270.832
270.343
270.094
269.598
269.34
268.843
268.571
268.073
267.793
267.289
267.002
266.494
266.2
265.687
265.386
264.871
264.559
264.045
263.722
263.209
262.876
262.364
262.02
261.508
261.158
260.644
260.289
259.773
259.414
258.896
258.533
258.012
257.644
257.122
256.751
256.23
255.857
255.337
254.964
254.445
254.073
253.553
253.182
252.664
252.291
251.778
251.405
250.898
250.533
250.028
249.679
249.182
248.843
248.367
248.035
247.579
247.258
246.815
246.511
246.094
245.829
245.448
245.219
244.881
244.688
244.395
244.239
243.992
243.871
243.667
243.577
243.41
243.336
243.137
243.278
243.541
)
;

boundaryField
{
    sideLeft
    {
        type            symmetryPlane;
    }
    sideRight
    {
        type            zeroGradient;
    }
    topbottom
    {
        type            empty;
    }
    frontback
    {
        type            empty;
    }
}


// ************************************************************************* //
