/*--------------------------------*- C++ -*----------------------------------*\
| =========                 |                                                 |
| \\      /  F ield         | OpenFOAM: The Open Source CFD Toolbox           |
|  \\    /   O peration     | Version:  2.4.0                                 |
|   \\  /    A nd           | Web:      www.OpenFOAM.org                      |
|    \\/     M anipulation  |                                                 |
\*---------------------------------------------------------------------------*/
FoamFile
{
    version     2.0;
    format      ascii;
    class       volVectorField;
    location    "0.12";
    object      U.airMean;
}
// * * * * * * * * * * * * * * * * * * * * * * * * * * * * * * * * * * * * * //

dimensions      [0 1 -1 0 0 0 0];

internalField   nonuniform List<vector> 
1000
(
(-6.99996e-14 0 0)
(-3.21878e-14 0 0)
(-6.35934e-14 0 0)
(-3.44852e-14 0 0)
(-7.81712e-14 0 0)
(-2.82977e-14 0 0)
(-6.39841e-14 0 0)
(-5.42619e-14 0 0)
(-5.89158e-14 0 0)
(-4.22537e-14 0 0)
(-6.58792e-14 0 0)
(-8.47261e-14 0 0)
(-4.86962e-14 0 0)
(-9.32702e-14 0 0)
(-3.23833e-14 0 0)
(-7.23152e-14 0 0)
(-9.76428e-15 0 0)
(-4.70082e-14 0 0)
(-2.29183e-15 0 0)
(-8.00836e-14 0 0)
(6.5678e-16 0 0)
(-7.97581e-14 0 0)
(-3.09325e-14 0 0)
(-7.03022e-14 0 0)
(-8.44006e-14 0 0)
(-7.59807e-14 0 0)
(-7.84853e-14 0 0)
(-5.80634e-14 0 0)
(-1.11265e-13 0 0)
(-2.54734e-14 0 0)
(-8.01964e-14 0 0)
(-6.62462e-14 0 0)
(-3.93227e-14 0 0)
(-5.35452e-14 0 0)
(-4.51232e-15 0 0)
(-8.64073e-14 0 0)
(4.2626e-14 0 0)
(-5.66416e-14 0 0)
(2.24705e-14 0 0)
(-4.68658e-14 0 0)
(1.87698e-14 0 0)
(-3.67111e-14 0 0)
(4.05588e-15 0 0)
(-1.76272e-14 0 0)
(2.73083e-14 0 0)
(3.19153e-15 0 0)
(4.84355e-15 0 0)
(1.09601e-14 0 0)
(-3.91977e-15 0 0)
(1.19784e-14 0 0)
(-1.78935e-14 0 0)
(2.65918e-14 0 0)
(1.50423e-15 0 0)
(4.66824e-14 0 0)
(1.94987e-14 0 0)
(4.67003e-14 0 0)
(2.34893e-14 0 0)
(2.91322e-14 0 0)
(-4.73684e-15 0 0)
(3.42361e-14 0 0)
(-8.2065e-15 0 0)
(7.11665e-14 0 0)
(3.06778e-14 0 0)
(1.36662e-14 0 0)
(4.9578e-14 0 0)
(3.99563e-14 0 0)
(7.5643e-14 0 0)
(5.74473e-14 0 0)
(4.4492e-14 0 0)
(5.59313e-14 0 0)
(2.17843e-14 0 0)
(3.94764e-14 0 0)
(-1.32604e-15 0 0)
(4.04178e-14 0 0)
(1.96465e-14 0 0)
(-2.86563e-15 0 0)
(3.00793e-14 0 0)
(-1.07822e-14 0 0)
(-4.60664e-15 0 0)
(1.31213e-14 0 0)
(5.80216e-16 0 0)
(2.42887e-14 0 0)
(2.10736e-14 0 0)
(5.43741e-14 0 0)
(-1.00433e-16 0 0)
(3.18262e-14 0 0)
(-1.05809e-14 0 0)
(2.78234e-14 0 0)
(-1.39737e-15 0 0)
(-1.45008e-14 0 0)
(1.80358e-14 0 0)
(2.40993e-15 0 0)
(-8.65663e-15 0 0)
(6.09872e-15 0 0)
(-3.08078e-14 0 0)
(1.80711e-14 0 0)
(-7.16578e-14 0 0)
(3.80096e-15 0 0)
(-8.01371e-14 0 0)
(-5.90699e-14 0 0)
(-8.71479e-14 0 0)
(-7.25465e-14 0 0)
(-9.87891e-14 0 0)
(-1.01335e-13 0 0)
(-1.17796e-13 0 0)
(-1.34748e-13 0 0)
(-1.04912e-13 0 0)
(-1.31918e-13 0 0)
(-1.7249e-13 0 0)
(-1.37543e-13 0 0)
(-1.87038e-13 0 0)
(-1.45821e-13 0 0)
(-1.87151e-13 0 0)
(-1.73379e-13 0 0)
(-1.99728e-13 0 0)
(-1.8689e-13 0 0)
(-1.67155e-13 0 0)
(-1.43613e-13 0 0)
(-1.36815e-13 0 0)
(-1.69186e-13 0 0)
(-1.15564e-13 0 0)
(-1.50824e-13 0 0)
(-9.95472e-14 0 0)
(-1.41167e-13 0 0)
(-1.03633e-13 0 0)
(-1.43897e-13 0 0)
(-1.06303e-13 0 0)
(-1.4781e-13 0 0)
(-9.0417e-14 0 0)
(-1.71495e-13 0 0)
(-8.97776e-14 0 0)
(-1.76439e-13 0 0)
(-1.29242e-13 0 0)
(-1.43672e-13 0 0)
(-1.00885e-13 0 0)
(-1.27382e-13 0 0)
(-1.06285e-13 0 0)
(-9.3916e-14 0 0)
(-6.83662e-14 0 0)
(-7.54714e-14 0 0)
(-7.98295e-14 0 0)
(-6.09174e-14 0 0)
(-1.09027e-13 0 0)
(-6.1705e-14 0 0)
(-1.16268e-13 0 0)
(-5.91115e-14 0 0)
(-8.01374e-14 0 0)
(-7.94268e-14 0 0)
(-6.40081e-14 0 0)
(-8.60526e-14 0 0)
(-8.64316e-14 0 0)
(-1.10531e-13 0 0)
(-1.07641e-13 0 0)
(-1.0249e-13 0 0)
(-8.40751e-14 0 0)
(-7.60695e-14 0 0)
(-1.02952e-13 0 0)
(-8.24585e-14 0 0)
(-1.05166e-13 0 0)
(-8.18665e-14 0 0)
(-1.27441e-13 0 0)
(-5.29772e-14 0 0)
(-1.00257e-13 0 0)
(-4.82994e-14 0 0)
(-8.65143e-14 0 0)
(-3.57465e-14 0 0)
(-1.05663e-13 0 0)
(-4.73876e-14 0 0)
(-1.08512e-13 0 0)
(-1.05077e-13 0 0)
(-1.1612e-13 0 0)
(-9.98965e-14 0 0)
(-1.39882e-13 0 0)
(-1.03905e-13 0 0)
(-1.62536e-13 0 0)
(-1.28508e-13 0 0)
(-1.83651e-13 0 0)
(-1.42381e-13 0 0)
(-2.00716e-13 0 0)
(-1.93996e-13 0 0)
(-1.84877e-13 0 0)
(-1.78441e-13 0 0)
(-1.58374e-13 0 0)
(-2.13405e-13 0 0)
(-1.46206e-13 0 0)
(-2.11037e-13 0 0)
(-1.39871e-13 0 0)
(-2.44912e-13 0 0)
(-1.0763e-13 0 0)
(-2.14376e-13 0 0)
(-1.04107e-13 0 0)
(-2.01438e-13 0 0)
(-1.16677e-13 0 0)
(-1.82716e-13 0 0)
(-1.55449e-13 0 0)
(-1.87033e-13 0 0)
(-1.70992e-13 0 0)
(-1.70542e-13 0 0)
(-1.57166e-13 0 0)
(-1.76848e-13 0 0)
(-1.45833e-13 0 0)
(-2.10628e-13 0 0)
(-1.22178e-13 0 0)
(-1.76582e-13 0 0)
(-1.48089e-13 0 0)
(-1.48071e-13 0 0)
(-1.09335e-13 0 0)
(-1.26559e-13 0 0)
(-1.33523e-13 0 0)
(-1.10235e-13 0 0)
(-1.0625e-13 0 0)
(-7.88112e-14 0 0)
(-1.08677e-13 0 0)
(-4.70026e-14 0 0)
(-8.09069e-14 0 0)
(-3.27918e-14 0 0)
(-6.14441e-14 0 0)
(-4.42905e-14 0 0)
(-2.81848e-14 0 0)
(-1.23991e-14 0 0)
(-5.42978e-15 0 0)
(-2.56742e-14 0 0)
(-1.00839e-14 0 0)
(-2.5775e-14 0 0)
(-4.53265e-14 0 0)
(-2.09434e-14 0 0)
(-1.69051e-14 0 0)
(-4.99568e-14 0 0)
(-1.38085e-14 0 0)
(-5.50374e-14 0 0)
(-7.04326e-14 0 0)
(-7.39438e-14 0 0)
(-9.886e-14 0 0)
(-4.64164e-14 0 0)
(-9.32052e-14 0 0)
(-1.90369e-14 0 0)
(-8.7278e-14 0 0)
(-3.10391e-14 0 0)
(-1.0397e-13 0 0)
(-8.04097e-14 0 0)
(-7.66617e-14 0 0)
(-4.9152e-14 0 0)
(-9.48037e-14 0 0)
(-7.5026e-15 0 0)
(-4.83581e-14 0 0)
(-2.16895e-14 0 0)
(-3.42835e-14 0 0)
(-7.63252e-15 0 0)
(-1.47318e-14 0 0)
(7.99348e-15 0 0)
(5.75551e-15 0 0)
(2.50642e-14 0 0)
(2.11209e-14 0 0)
(-2.5449e-14 0 0)
(2.74918e-14 0 0)
(-1.8154e-14 0 0)
(3.93283e-14 0 0)
(-7.8039e-15 0 0)
(3.82861e-14 0 0)
(-1.0859e-14 0 0)
(6.13194e-14 0 0)
(8.38474e-15 0 0)
(4.41126e-14 0 0)
(2.75927e-14 0 0)
(1.1055e-14 0 0)
(4.27152e-14 0 0)
(-2.59639e-14 0 0)
(7.99771e-14 0 0)
(1.28907e-14 0 0)
(1.02318e-13 0 0)
(3.43254e-14 0 0)
(1.01323e-13 0 0)
(4.27334e-14 0 0)
(8.30979e-14 0 0)
(4.61972e-14 0 0)
(9.95942e-14 0 0)
(4.36691e-14 0 0)
(1.25049e-13 0 0)
(6.74486e-14 0 0)
(1.23634e-13 0 0)
(1.16873e-13 0 0)
(1.36578e-13 0 0)
(1.4019e-13 0 0)
(6.37895e-14 0 0)
(1.56899e-13 0 0)
(1.05711e-13 0 0)
(1.19448e-13 0 0)
(1.24647e-13 0 0)
(1.31569e-13 0 0)
(1.01104e-13 0 0)
(1.25032e-13 0 0)
(1.05166e-13 0 0)
(1.26174e-13 0 0)
(6.79815e-14 0 0)
(1.44992e-13 0 0)
(9.8582e-14 0 0)
(1.09021e-13 0 0)
(1.29609e-13 0 0)
(1.46052e-13 0 0)
(1.03213e-13 0 0)
(1.614e-13 0 0)
(1.31924e-13 0 0)
(1.44726e-13 0 0)
(1.48237e-13 0 0)
(1.08755e-13 0 0)
(1.6317e-13 0 0)
(1.30468e-13 0 0)
(1.27376e-13 0 0)
(1.19709e-13 0 0)
(8.98601e-14 0 0)
(1.17808e-13 0 0)
(9.04167e-14 0 0)
(1.18601e-13 0 0)
(9.42004e-14 0 0)
(1.39402e-13 0 0)
(1.14516e-13 0 0)
(1.33031e-13 0 0)
(1.03769e-13 0 0)
(9.75576e-14 0 0)
(1.4e-13 0 0)
(1.18199e-13 0 0)
(1.06931e-13 0 0)
(1.34257e-13 0 0)
(1.03011e-13 0 0)
(1.4993e-13 0 0)
(1.00939e-13 0 0)
(8.75863e-14 0 0)
(1.00749e-13 0 0)
(8.15704e-14 0 0)
(8.79831e-14 0 0)
(1.17305e-13 0 0)
(1.24789e-13 0 0)
(8.74503e-14 0 0)
(1.4906e-13 0 0)
(7.85331e-14 0 0)
(1.39148e-13 0 0)
(8.1754e-14 0 0)
(8.32461e-14 0 0)
(1.01785e-13 0 0)
(1.00335e-13 0 0)
(1.19892e-13 0 0)
(9.8197e-14 0 0)
(1.13278e-13 0 0)
(6.75019e-14 0 0)
(1.15735e-13 0 0)
(4.496e-14 0 0)
(1.28791e-13 0 0)
(7.5389e-14 0 0)
(9.32289e-14 0 0)
(7.59572e-14 0 0)
(8.8202e-14 0 0)
(8.59343e-14 0 0)
(9.3685e-14 0 0)
(5.41554e-14 0 0)
(1.16937e-13 0 0)
(8.56085e-14 0 0)
(7.73369e-14 0 0)
(1.0262e-13 0 0)
(1.09601e-13 0 0)
(1.15422e-13 0 0)
(1.07097e-13 0 0)
(9.70719e-14 0 0)
(7.43644e-14 0 0)
(1.01756e-13 0 0)
(1.12147e-13 0 0)
(1.37058e-13 0 0)
(7.3577e-14 0 0)
(1.21313e-13 0 0)
(8.50403e-14 0 0)
(1.03029e-13 0 0)
(1.00133e-13 0 0)
(1.23978e-13 0 0)
(1.01756e-13 0 0)
(1.31243e-13 0 0)
(1.04018e-13 0 0)
(1.61287e-13 0 0)
(1.33789e-13 0 0)
(1.90034e-13 0 0)
(1.26175e-13 0 0)
(2.03422e-13 0 0)
(1.42914e-13 0 0)
(1.80655e-13 0 0)
(1.58747e-13 0 0)
(1.4395e-13 0 0)
(1.44098e-13 0 0)
(7.13806e-14 0 0)
(1.67599e-13 0 0)
(9.10269e-14 0 0)
(1.51837e-13 0 0)
(8.22161e-14 0 0)
(1.14338e-13 0 0)
(1.10004e-13 0 0)
(1.38579e-13 0 0)
(7.14514e-14 0 0)
(1.42061e-13 0 0)
(7.21263e-14 0 0)
(1.23664e-13 0 0)
(9.94881e-14 0 0)
(1.55289e-13 0 0)
(1.22687e-13 0 0)
(1.49415e-13 0 0)
(1.46224e-13 0 0)
(1.16062e-13 0 0)
(1.6921e-13 0 0)
(1.49516e-13 0 0)
(1.489e-13 0 0)
(1.52476e-13 0 0)
(1.60038e-13 0 0)
(1.08968e-13 0 0)
(1.58019e-13 0 0)
(1.07239e-13 0 0)
(1.75587e-13 0 0)
(1.18773e-13 0 0)
(1.46117e-13 0 0)
(1.11987e-13 0 0)
(1.38307e-13 0 0)
(9.97662e-14 0 0)
(1.31871e-13 0 0)
(3.92877e-14 0 0)
(1.60256e-13 0 0)
(7.65376e-14 0 0)
(1.16333e-13 0 0)
(9.12814e-14 0 0)
(1.26873e-13 0 0)
(1.03491e-13 0 0)
(8.62837e-14 0 0)
(1.1673e-13 0 0)
(7.66795e-14 0 0)
(9.60593e-14 0 0)
(5.88806e-14 0 0)
(1.08192e-13 0 0)
(8.1979e-14 0 0)
(7.61526e-14 0 0)
(1.14794e-13 0 0)
(1.2245e-13 0 0)
(8.92857e-14 0 0)
(1.0098e-13 0 0)
(4.92824e-14 0 0)
(7.84614e-14 0 0)
(9.17827e-15 0 0)
(8.74614e-14 0 0)
(2.26962e-14 0 0)
(5.5144e-14 0 0)
(5.19584e-14 0 0)
(5.63816e-14 0 0)
(5.99282e-14 0 0)
(4.32485e-14 0 0)
(6.60684e-14 0 0)
(3.94944e-14 0 0)
(2.95763e-14 0 0)
(2.63079e-14 0 0)
(1.45722e-14 0 0)
(6.59737e-14 0 0)
(5.2811e-14 0 0)
(3.81267e-14 0 0)
(6.82415e-14 0 0)
(5.8229e-14 0 0)
(2.14171e-14 0 0)
(6.83657e-14 0 0)
(-2.18605e-14 0 0)
(9.37555e-14 0 0)
(-9.73992e-15 0 0)
(5.52798e-14 0 0)
(-3.42833e-14 0 0)
(2.6201e-14 0 0)
(-3.90796e-14 0 0)
(-7.66808e-15 0 0)
(-4.34909e-14 0 0)
(5.03057e-16 0 0)
(-2.45551e-14 0 0)
(-3.12462e-14 0 0)
(-1.16646e-14 0 0)
(8.30137e-15 0 0)
(4.40529e-15 0 0)
(-1.16705e-14 0 0)
(-1.45307e-14 0 0)
(-3.07426e-14 0 0)
(3.40436e-15 0 0)
(-5.76424e-14 0 0)
(1.31271e-14 0 0)
(-1.37667e-14 0 0)
(1.23751e-14 0 0)
(-4.76475e-14 0 0)
(2.83385e-14 0 0)
(-3.5077e-14 0 0)
(-1.17299e-14 0 0)
(-3.85114e-14 0 0)
(-1.51524e-14 0 0)
(-7.84733e-14 0 0)
(1.48008e-15 0 0)
(-5.04071e-14 0 0)
(-5.91586e-14 0 0)
(-4.41603e-14 0 0)
(-5.63104e-14 0 0)
(-2.99612e-14 0 0)
(-1.96999e-14 0 0)
(-1.43293e-14 0 0)
(-3.85172e-14 0 0)
(1.95345e-16 0 0)
(-2.88894e-14 0 0)
(2.09549e-14 0 0)
(-8.36075e-15 0 0)
(-2.62544e-14 0 0)
(-7.77458e-15 0 0)
(-3.01861e-14 0 0)
(6.27621e-15 0 0)
(-4.61731e-14 0 0)
(1.27538e-14 0 0)
(-6.31609e-14 0 0)
(3.23766e-14 0 0)
(-4.02578e-14 0 0)
(1.85391e-14 0 0)
(-2.01616e-14 0 0)
(9.10083e-15 0 0)
(-9.41458e-15 0 0)
(2.60827e-14 0 0)
(9.55102e-15 0 0)
(3.83396e-14 0 0)
(5.55643e-14 0 0)
(8.8642e-15 0 0)
(5.39359e-14 0 0)
(-2.43891e-14 0 0)
(7.47429e-14 0 0)
(-4.97355e-15 0 0)
(6.74244e-14 0 0)
(1.18425e-14 0 0)
(4.06429e-14 0 0)
(1.37611e-14 0 0)
(5.18634e-14 0 0)
(2.33915e-15 0 0)
(1.64607e-14 0 0)
(-3.41046e-15 0 0)
(5.60135e-15 0 0)
(3.23907e-15 0 0)
(2.73794e-14 0 0)
(2.05644e-14 0 0)
(2.11326e-14 0 0)
(1.93859e-14 0 0)
(-8.21845e-15 0 0)
(2.93084e-15 0 0)
(-1.44476e-14 0 0)
(-1.46313e-14 0 0)
(-2.1374e-15 0 0)
(-1.09365e-14 0 0)
(4.34616e-15 0 0)
(-2.43892e-14 0 0)
(3.52427e-14 0 0)
(-1.46963e-14 0 0)
(3.02573e-14 0 0)
(2.94166e-14 0 0)
(1.12171e-13 0 0)
(1.3942e-13 0 0)
(2.36332e-13 0 0)
(3.6924e-13 0 0)
(5.96956e-13 0 0)
(9.39906e-13 0 0)
(1.44467e-12 0 0)
(2.303e-12 0 0)
(3.59862e-12 0 0)
(5.62976e-12 0 0)
(8.74843e-12 0 0)
(1.36605e-11 0 0)
(2.11504e-11 0 0)
(3.27228e-11 0 0)
(5.04323e-11 0 0)
(7.74561e-11 0 0)
(1.18715e-10 0 0)
(1.81068e-10 0 0)
(2.75323e-10 0 0)
(4.17008e-10 0 0)
(6.29362e-10 0 0)
(9.46187e-10 0 0)
(1.41721e-09 0 0)
(2.11469e-09 0 0)
(3.14348e-09 0 0)
(4.65486e-09 0 0)
(6.86641e-09 0 0)
(1.00895e-08 0 0)
(1.47676e-08 0 0)
(2.15304e-08 0 0)
(3.12665e-08 0 0)
(4.52256e-08 0 0)
(6.51565e-08 0 0)
(9.34953e-08 0 0)
(1.3362e-07 0 0)
(1.90191e-07 0 0)
(2.69612e-07 0 0)
(3.80635e-07 0 0)
(5.35165e-07 0 0)
(7.49321e-07 0 0)
(1.04481e-06 0 0)
(1.45075e-06 0 0)
(2.00593e-06 0 0)
(2.76186e-06 0 0)
(3.78651e-06 0 0)
(5.16918e-06 0 0)
(7.02647e-06 0 0)
(9.50992e-06 0 0)
(1.28154e-05 0 0)
(1.71947e-05 0 0)
(2.29696e-05 0 0)
(3.05493e-05 0 0)
(4.04511e-05 0 0)
(5.33251e-05 0 0)
(6.99836e-05 0 0)
(9.14363e-05 0 0)
(0.00011893 0 0)
(0.000153994 0 0)
(0.000198498 0 0)
(0.000254705 0 0)
(0.000325345 0 0)
(0.000413689 0 0)
(0.000523626 0 0)
(0.000659756 0 0)
(0.000827485 0 0)
(0.00103312 0 0)
(0.00128396 0 0)
(0.00158844 0 0)
(0.00195618 0 0)
(0.00239812 0 0)
(0.0029266 0 0)
(0.00355544 0 0)
(0.00430003 0 0)
(0.00517737 0 0)
(0.00620611 0 0)
(0.0074066 0 0)
(0.00880084 0 0)
(0.0104125 0 0)
(0.0122668 0 0)
(0.0143906 0 0)
(0.016812 0 0)
(0.0195606 0 0)
(0.022667 0 0)
(0.026163 0 0)
(0.0300811 0 0)
(0.0344543 0 0)
(0.0393163 0 0)
(0.0447008 0 0)
(0.0506419 0 0)
(0.0571732 0 0)
(0.064328 0 0)
(0.0721392 0 0)
(0.080639 0 0)
(0.0898587 0 0)
(0.0998285 0 0)
(0.110578 0 0)
(0.122134 0 0)
(0.134525 0 0)
(0.147775 0 0)
(0.161908 0 0)
(0.176948 0 0)
(0.192914 0 0)
(0.209827 0 0)
(0.227705 0 0)
(0.246564 0 0)
(0.266421 0 0)
(0.28729 0 0)
(0.309182 0 0)
(0.332112 0 0)
(0.356088 0 0)
(0.38112 0 0)
(0.407218 0 0)
(0.434389 0 0)
(0.462639 0 0)
(0.491976 0 0)
(0.522405 0 0)
(0.55393 0 0)
(0.586556 0 0)
(0.620287 0 0)
(0.655126 0 0)
(0.691076 0 0)
(0.728141 0 0)
(0.766322 0 0)
(0.805621 0 0)
(0.846041 0 0)
(0.887584 0 0)
(0.930252 0 0)
(0.974045 0 0)
(1.01897 0 0)
(1.06501 0 0)
(1.11219 0 0)
(1.16051 0 0)
(1.20995 0 0)
(1.26053 0 0)
(1.31224 0 0)
(1.3651 0 0)
(1.41909 0 0)
(1.47422 0 0)
(1.53049 0 0)
(1.5879 0 0)
(1.64646 0 0)
(1.70617 0 0)
(1.76703 0 0)
(1.82903 0 0)
(1.89218 0 0)
(1.95649 0 0)
(2.02196 0 0)
(2.08858 0 0)
(2.15636 0 0)
(2.2253 0 0)
(2.2954 0 0)
(2.36667 0 0)
(2.43911 0 0)
(2.51271 0 0)
(2.58749 0 0)
(2.66344 0 0)
(2.74057 0 0)
(2.81888 0 0)
(2.89837 0 0)
(2.97905 0 0)
(3.06091 0 0)
(3.14396 0 0)
(3.2282 0 0)
(3.31364 0 0)
(3.40028 0 0)
(3.48811 0 0)
(3.57716 0 0)
(3.6674 0 0)
(3.75886 0 0)
(3.85153 0 0)
(3.94541 0 0)
(4.04052 0 0)
(4.13684 0 0)
(4.23439 0 0)
(4.33317 0 0)
(4.43318 0 0)
(4.53443 0 0)
(4.63691 0 0)
(4.74063 0 0)
(4.84561 0 0)
(4.95182 0 0)
(5.05929 0 0)
(5.16802 0 0)
(5.27801 0 0)
(5.38925 0 0)
(5.50177 0 0)
(5.61555 0 0)
(5.73061 0 0)
(5.84694 0 0)
(5.96456 0 0)
(6.08346 0 0)
(6.20365 0 0)
(6.32513 0 0)
(6.44791 0 0)
(6.57199 0 0)
(6.69737 0 0)
(6.82406 0 0)
(6.95207 0 0)
(7.08139 0 0)
(7.21203 0 0)
(7.344 0 0)
(7.47729 0 0)
(7.61193 0 0)
(7.74789 0 0)
(7.88521 0 0)
(8.02387 0 0)
(8.16388 0 0)
(8.30525 0 0)
(8.44798 0 0)
(8.59207 0 0)
(8.73754 0 0)
(8.88438 0 0)
(9.03261 0 0)
(9.18222 0 0)
(9.33322 0 0)
(9.48561 0 0)
(9.63941 0 0)
(9.79462 0 0)
(9.95124 0 0)
(10.1093 0 0)
(10.2687 0 0)
(10.4296 0 0)
(10.5919 0 0)
(10.7557 0 0)
(10.9209 0 0)
(11.0876 0 0)
(11.2557 0 0)
(11.4253 0 0)
(11.5963 0 0)
(11.7689 0 0)
(11.9429 0 0)
(12.1184 0 0)
(12.2954 0 0)
(12.4739 0 0)
(12.6539 0 0)
(12.8355 0 0)
(13.0185 0 0)
(13.2031 0 0)
(13.3892 0 0)
(13.5769 0 0)
(13.7661 0 0)
(13.9569 0 0)
(14.1492 0 0)
(14.3432 0 0)
(14.5387 0 0)
(14.7357 0 0)
(14.9344 0 0)
(15.1347 0 0)
(15.3366 0 0)
(15.5402 0 0)
(15.7453 0 0)
(15.9521 0 0)
(16.1605 0 0)
(16.3706 0 0)
(16.5824 0 0)
(16.7958 0 0)
(17.0109 0 0)
(17.2278 0 0)
(17.4463 0 0)
(17.6665 0 0)
(17.8884 0 0)
(18.1121 0 0)
(18.3375 0 0)
(18.5646 0 0)
(18.7936 0 0)
(19.0242 0 0)
(19.2567 0 0)
(19.491 0 0)
(19.727 0 0)
(19.9649 0 0)
(20.2046 0 0)
(20.4461 0 0)
(20.6896 0 0)
(20.9348 0 0)
(21.1819 0 0)
(21.4309 0 0)
(21.6819 0 0)
(21.9346 0 0)
(22.1895 0 0)
(22.4459 0 0)
(22.7049 0 0)
(22.9651 0 0)
(23.2281 0 0)
(23.4921 0 0)
(23.7593 0 0)
(24.0272 0 0)
(24.2987 0 0)
(24.5704 0 0)
(24.8462 0 0)
(25.1219 0 0)
(25.402 0 0)
(25.6817 0 0)
(25.9663 0 0)
(26.2502 0 0)
(26.5393 0 0)
(26.8273 0 0)
(27.1209 0 0)
(27.4133 0 0)
(27.7114 0 0)
(28.0082 0 0)
(28.311 0 0)
(28.6124 0 0)
(28.9197 0 0)
(29.2259 0 0)
(29.5377 0 0)
(29.8491 0 0)
(30.165 0 0)
(30.4821 0 0)
(30.802 0 0)
(31.1252 0 0)
(31.4487 0 0)
(31.7785 0 0)
(32.1054 0 0)
(32.4423 0 0)
(32.7724 0 0)
(33.1165 0 0)
(33.45 0 0)
(33.8015 0 0)
(34.1385 0 0)
(34.4976 0 0)
(34.8381 0 0)
(35.2049 0 0)
(35.549 0 0)
(35.9238 0 0)
(36.2716 0 0)
(36.6546 0 0)
(37.0062 0 0)
(37.3976 0 0)
(37.7532 0 0)
(38.153 0 0)
(38.5129 0 0)
(38.9214 0 0)
(39.2857 0 0)
(39.703 0 0)
(40.072 0 0)
(40.4983 0 0)
(40.8722 0 0)
(41.3077 0 0)
(41.6869 0 0)
(42.1318 0 0)
(42.5164 0 0)
(42.9708 0 0)
(43.3611 0 0)
(43.8251 0 0)
(44.221 0 0)
(44.6942 0 0)
(45.0952 0 0)
(45.5766 0 0)
(45.9809 0 0)
(46.4675 0 0)
(46.8702 0 0)
(47.3589 0 0)
(47.7499 0 0)
(48.2302 0 0)
(48.6131 0 0)
(49.0926 0 0)
(49.4758 0 0)
(49.962 0 0)
(50.3501 0 0)
(50.846 0 0)
(51.239 0 0)
(51.7437 0 0)
(52.1407 0 0)
(52.6523 0 0)
(53.0526 0 0)
(53.57 0 0)
(53.9734 0 0)
(54.4965 0 0)
(54.9032 0 0)
(55.4323 0 0)
(55.8425 0 0)
(56.3777 0 0)
(56.7915 0 0)
(57.3327 0 0)
(57.7502 0 0)
(58.2971 0 0)
(58.7183 0 0)
(59.2707 0 0)
(59.6955 0 0)
(60.2533 0 0)
(60.6818 0 0)
(61.245 0 0)
(61.6771 0 0)
(62.2455 0 0)
(62.6812 0 0)
(63.2548 0 0)
(63.6939 0 0)
(64.2727 0 0)
(64.7151 0 0)
(65.299 0 0)
(65.7446 0 0)
(66.3335 0 0)
(66.7821 0 0)
(67.3759 0 0)
(67.8274 0 0)
(68.426 0 0)
(68.8803 0 0)
(69.4835 0 0)
(69.9404 0 0)
(70.5481 0 0)
(71.0073 0 0)
(71.6193 0 0)
(72.0807 0 0)
(72.6968 0 0)
(73.1599 0 0)
(73.7799 0 0)
(74.2446 0 0)
(74.8684 0 0)
(75.3343 0 0)
(75.9616 0 0)
(76.4283 0 0)
(77.0586 0 0)
(77.5256 0 0)
(78.1585 0 0)
(78.6251 0 0)
(79.2601 0 0)
(79.7257 0 0)
(80.3624 0 0)
(80.8263 0 0)
(81.4641 0 0)
(81.9257 0 0)
(82.5639 0 0)
(83.0221 0 0)
(83.6595 0 0)
(84.1128 0 0)
(84.7481 0 0)
(85.1946 0 0)
(85.8262 0 0)
(86.2638 0 0)
(86.89 0 0)
(87.3168 0 0)
(87.9365 0 0)
(88.3519 0 0)
(88.9634 0 0)
(89.3615 0 0)
(89.9603 0 0)
(90.3321 0 0)
(90.9165 0 0)
(91.2569 0 0)
(91.8249 0 0)
(92.1321 0 0)
(92.6807 0 0)
(92.9555 0 0)
(93.4858 0 0)
(93.7317 0 0)
(94.2506 0 0)
(94.4764 0 0)
(95.0029 0 0)
(95.234 0 0)
(96.6238 0 0)
)
;

boundaryField
{
    sideLeft
    {
        type            symmetryPlane;
    }
    sideRight
    {
        type            calculated;
        value           uniform (96.2397 0 0);
    }
    topbottom
    {
        type            empty;
    }
    frontback
    {
        type            empty;
    }
}


// ************************************************************************* //
