/*--------------------------------*- C++ -*----------------------------------*\
| =========                 |                                                 |
| \\      /  F ield         | OpenFOAM: The Open Source CFD Toolbox           |
|  \\    /   O peration     | Version:  2.4.0                                 |
|   \\  /    A nd           | Web:      www.OpenFOAM.org                      |
|    \\/     M anipulation  |                                                 |
\*---------------------------------------------------------------------------*/
FoamFile
{
    version     2.0;
    format      ascii;
    class       volVectorField;
    location    "0.12";
    object      U.air;
}
// * * * * * * * * * * * * * * * * * * * * * * * * * * * * * * * * * * * * * //

dimensions      [0 1 -1 0 0 0 0];

internalField   nonuniform List<vector> 
1000
(
(1.42121e-14 0 0)
(7.10509e-15 0 0)
(9.94763e-14 0 0)
(2.629e-13 0 0)
(7.10599e-15 0 0)
(5.68429e-14 0 0)
(3.33955e-13 0 0)
(2.62901e-13 0 0)
(3.69482e-13 0 0)
(8.45546e-13 0 0)
(9.166e-13 0 0)
(9.0239e-13 0 0)
(1.00897e-12 0 0)
(9.37917e-13 0 0)
(1.03739e-12 0 0)
(8.45547e-13 0 0)
(7.67386e-13 0 0)
(5.96856e-13 0 0)
(6.46593e-13 0 0)
(6.03962e-13 0 0)
(4.90274e-13 0 0)
(1.77636e-13 0 0)
(1.91846e-13 0 0)
(1.98952e-13 0 0)
(-4.97378e-14 0 0)
(-1.27898e-13 0 0)
(-4.97379e-14 0 0)
(-1.42114e-14 0 0)
(-4.26318e-14 0 0)
(-1.27899e-13 0 0)
(-2.629e-13 0 0)
(-2.98428e-13 0 0)
(-3.90799e-13 0 0)
(-2.84217e-13 0 0)
(-1.98953e-13 0 0)
(-2.7711e-13 0 0)
(-1.13688e-13 0 0)
(-4.26325e-13 0 0)
(-4.54748e-13 0 0)
(-4.68957e-13 0 0)
(-5.82646e-13 0 0)
(-5.54223e-13 0 0)
(-3.41061e-13 0 0)
(-1.77635e-13 0 0)
(-4.0501e-13 0 0)
(-2.20268e-13 0 0)
(-1.06581e-13 0 0)
(-1.49214e-13 0 0)
(7.10544e-14 0 0)
(1.56319e-13 0 0)
(2.13163e-13 0 0)
(6.39484e-14 0 0)
(-3.55267e-14 0 0)
(-2.98428e-13 0 0)
(-7.10539e-14 0 0)
(-1.63425e-13 0 0)
(-4.1922e-13 0 0)
(-1.91847e-13 0 0)
(-3.90798e-13 0 0)
(-3.76588e-13 0 0)
(-2.48689e-13 0 0)
(-1.27898e-13 0 0)
(-3.12639e-13 0 0)
(-5.25801e-13 0 0)
(-5.25802e-13 0 0)
(-3.19744e-13 0 0)
(-1.5632e-13 0 0)
(2.13163e-14 0 0)
(-7.81596e-14 0 0)
(-1.77636e-13 0 0)
(-1.84741e-13 0 0)
(-2.41585e-13 0 0)
(-3.90798e-13 0 0)
(-4.12115e-13 0 0)
(-3.12639e-13 0 0)
(-2.84217e-13 0 0)
(-3.55272e-13 0 0)
(-3.19744e-13 0 0)
(-2.41584e-13 0 0)
(-5.11591e-13 0 0)
(-4.12115e-13 0 0)
(-1.34736e-19 0 0)
(-1.63425e-13 0 0)
(3.26849e-13 0 0)
(5.11591e-13 0 0)
(3.55271e-13 0 0)
(5.11591e-13 0 0)
(6.11066e-13 0 0)
(6.39489e-13 0 0)
(8.02914e-13 0 0)
(8.66862e-13 0 0)
(7.67386e-13 0 0)
(8.31335e-13 0 0)
(5.61329e-13 0 0)
(2.41585e-13 0 0)
(3.12638e-13 0 0)
(3.48167e-13 0 0)
(3.69481e-13 0 0)
(3.12639e-13 0 0)
(4.33431e-13 0 0)
(5.89751e-13 0 0)
(6.03961e-13 0 0)
(2.62901e-13 0 0)
(1.06581e-13 0 0)
(-5.68434e-14 0 0)
(2.8422e-14 0 0)
(2.27373e-13 0 0)
(4.1922e-13 0 0)
(6.03962e-13 0 0)
(6.53699e-13 0 0)
(2.84218e-13 0 0)
(4.33431e-13 0 0)
(6.6791e-13 0 0)
(4.9738e-13 0 0)
(5.82645e-13 0 0)
(9.23706e-13 0 0)
(1.0516e-12 0 0)
(8.10019e-13 0 0)
(7.53175e-13 0 0)
(6.537e-13 0 0)
(7.17648e-13 0 0)
(5.40013e-13 0 0)
(3.90798e-13 0 0)
(1.98952e-13 0 0)
(3.48166e-13 0 0)
(5.18697e-13 0 0)
(7.53175e-13 0 0)
(9.8055e-13 0 0)
(1.03029e-12 0 0)
(7.17649e-13 0 0)
(5.68433e-13 0 0)
(5.7554e-13 0 0)
(7.10542e-13 0 0)
(5.04486e-13 0 0)
(5.75539e-13 0 0)
(6.25278e-13 0 0)
(5.68434e-13 0 0)
(4.90274e-13 0 0)
(4.05009e-13 0 0)
(3.33955e-13 0 0)
(2.34479e-13 0 0)
(1.91846e-13 0 0)
(1.63425e-13 0 0)
(3.12638e-13 0 0)
(2.70007e-13 0 0)
(2.27373e-13 0 0)
(3.69482e-13 0 0)
(4.83169e-13 0 0)
(4.1922e-13 0 0)
(4.40537e-13 0 0)
(3.83693e-13 0 0)
(5.18696e-13 0 0)
(3.97904e-13 0 0)
(3.83693e-13 0 0)
(3.97904e-13 0 0)
(3.90798e-13 0 0)
(-7.10539e-14 0 0)
(-2.84219e-14 0 0)
(-3.55269e-14 0 0)
(-3.97904e-13 0 0)
(-7.31858e-13 0 0)
(-8.59757e-13 0 0)
(-1.0445e-12 0 0)
(-9.45022e-13 0 0)
(-7.24753e-13 0 0)
(-5.47119e-13 0 0)
(-5.82644e-13 0 0)
(-4.90275e-13 0 0)
(-6.46594e-13 0 0)
(-6.46594e-13 0 0)
(-4.26325e-13 0 0)
(-2.55796e-13 0 0)
(-2.34479e-13 0 0)
(-3.41061e-13 0 0)
(-4.05009e-13 0 0)
(-4.47642e-13 0 0)
(-5.47117e-13 0 0)
(-4.61853e-13 0 0)
(-4.9738e-13 0 0)
(-6.6791e-13 0 0)
(-6.32383e-13 0 0)
(-5.18696e-13 0 0)
(-4.76064e-13 0 0)
(-3.26849e-13 0 0)
(-1.13688e-13 0 0)
(7.0837e-19 0 0)
(5.68424e-14 0 0)
(-1.63423e-13 0 0)
(-1.4211e-13 0 0)
(-2.7711e-13 0 0)
(-1.13688e-13 0 0)
(-1.77635e-13 0 0)
(-1.42117e-14 0 0)
(4.97385e-14 0 0)
(3.90798e-13 0 0)
(4.76064e-13 0 0)
(8.02913e-13 0 0)
(9.52127e-13 0 0)
(1.16529e-12 0 0)
(8.52652e-13 0 0)
(6.46593e-13 0 0)
(7.17649e-13 0 0)
(6.96331e-13 0 0)
(5.89751e-13 0 0)
(2.41584e-13 0 0)
(2.13165e-14 0 0)
(-9.23709e-14 0 0)
(-3.55271e-13 0 0)
(-4.54747e-13 0 0)
(-3.69482e-13 0 0)
(-3.2685e-13 0 0)
(-4.33431e-13 0 0)
(-1.91846e-13 0 0)
(-2.84222e-14 0 0)
(-7.10538e-14 0 0)
(-4.68959e-13 0 0)
(-7.67386e-13 0 0)
(-6.25278e-13 0 0)
(-5.54223e-13 0 0)
(-4.26326e-13 0 0)
(-1.91847e-13 0 0)
(2.44337e-19 0 0)
(-4.97382e-14 0 0)
(-6.39489e-14 0 0)
(-9.23703e-14 0 0)
(2.13161e-14 0 0)
(2.34479e-13 0 0)
(3.83694e-13 0 0)
(4.83169e-13 0 0)
(3.41061e-13 0 0)
(3.05533e-13 0 0)
(5.18696e-13 0 0)
(4.76064e-13 0 0)
(6.03961e-13 0 0)
(3.48167e-13 0 0)
(2.27373e-13 0 0)
(3.69483e-13 0 0)
(2.70005e-13 0 0)
(-2.13162e-13 0 0)
(-2.13163e-14 0 0)
(2.34479e-13 0 0)
(2.55795e-13 0 0)
(1.84742e-13 0 0)
(4.19219e-13 0 0)
(1.49214e-13 0 0)
(-1.42111e-14 0 0)
(-1.42106e-14 0 0)
(-1.5632e-13 0 0)
(-2.84217e-13 0 0)
(-5.47118e-13 0 0)
(-4.90274e-13 0 0)
(-5.61329e-13 0 0)
(-4.0501e-13 0 0)
(-4.47641e-13 0 0)
(-4.76064e-13 0 0)
(-5.68434e-13 0 0)
(-7.74492e-13 0 0)
(-8.3844e-13 0 0)
(-6.25278e-13 0 0)
(-5.18696e-13 0 0)
(-5.96857e-13 0 0)
(-6.32382e-13 0 0)
(-5.18697e-13 0 0)
(-1.35003e-13 0 0)
(-3.55269e-14 0 0)
(-4.97386e-14 0 0)
(1.70531e-13 0 0)
(1.8474e-13 0 0)
(-1.06581e-13 0 0)
(1.91846e-13 0 0)
(7.10619e-15 0 0)
(-7.1055e-14 0 0)
(1.35004e-13 0 0)
(1.49214e-13 0 0)
(-1.84741e-13 0 0)
(-6.39495e-14 0 0)
(-1.77635e-13 0 0)
(-4.0501e-13 0 0)
(-6.46593e-13 0 0)
(-4.76064e-13 0 0)
(-6.03961e-13 0 0)
(-4.47642e-13 0 0)
(-1.06582e-13 0 0)
(-1.20791e-13 0 0)
(8.52643e-14 0 0)
(-5.68431e-14 0 0)
(-4.26326e-14 0 0)
(1.56319e-13 0 0)
(3.26849e-13 0 0)
(2.70007e-13 0 0)
(6.53699e-13 0 0)
(6.25278e-13 0 0)
(4.12114e-13 0 0)
(2.13164e-13 0 0)
(4.12114e-13 0 0)
(4.12115e-13 0 0)
(2.91323e-13 0 0)
(4.54747e-13 0 0)
(2.27373e-13 0 0)
(4.26331e-14 0 0)
(1.98951e-13 0 0)
(1.27898e-13 0 0)
(3.48166e-13 0 0)
(2.77111e-13 0 0)
(1.98953e-13 0 0)
(2.629e-13 0 0)
(7.81599e-14 0 0)
(-1.98952e-13 0 0)
(-2.34479e-13 0 0)
(-6.03961e-13 0 0)
(-3.69482e-13 0 0)
(-1.49214e-13 0 0)
(4.97377e-14 0 0)
(3.76588e-13 0 0)
(2.91322e-13 0 0)
(1.35003e-13 0 0)
(9.94757e-14 0 0)
(1.13687e-13 0 0)
(9.23709e-14 0 0)
(4.97376e-14 0 0)
(-2.13163e-14 0 0)
(1.13687e-13 0 0)
(2.13163e-13 0 0)
(3.05534e-13 0 0)
(2.98427e-13 0 0)
(1.27898e-13 0 0)
(6.3949e-14 0 0)
(-7.10564e-15 0 0)
(-7.10525e-15 0 0)
(-2.84215e-14 0 0)
(-1.42109e-13 0 0)
(1.42108e-13 0 0)
(6.11067e-13 0 0)
(5.75539e-13 0 0)
(4.26333e-14 0 0)
(1.06581e-13 0 0)
(4.26329e-14 0 0)
(2.91323e-13 0 0)
(3.97904e-13 0 0)
(2.62901e-13 0 0)
(4.26325e-13 0 0)
(4.0501e-13 0 0)
(7.4607e-13 0 0)
(9.52128e-13 0 0)
(7.46069e-13 0 0)
(7.60282e-13 0 0)
(7.74491e-13 0 0)
(6.18173e-13 0 0)
(7.95808e-13 0 0)
(8.17124e-13 0 0)
(6.46594e-13 0 0)
(5.40013e-13 0 0)
(8.17124e-13 0 0)
(1.01608e-12 0 0)
(9.80548e-13 0 0)
(6.11067e-13 0 0)
(4.40537e-13 0 0)
(2.06057e-13 0 0)
(-3.55272e-14 0 0)
(-1.77636e-13 0 0)
(-1.27898e-13 0 0)
(-2.4869e-13 0 0)
(-4.26325e-13 0 0)
(-3.48166e-13 0 0)
(-2.4869e-13 0 0)
(-2.70007e-13 0 0)
(-1.63424e-13 0 0)
(-1.5632e-13 0 0)
(-3.4106e-13 0 0)
(-3.83693e-13 0 0)
(-1.91846e-13 0 0)
(-3.55274e-14 0 0)
(-2.91322e-13 0 0)
(-2.41585e-13 0 0)
(-1.63424e-13 0 0)
(1.63424e-13 0 0)
(2.70007e-13 0 0)
(4.12114e-13 0 0)
(2.98429e-13 0 0)
(5.25801e-13 0 0)
(5.89751e-13 0 0)
(5.68434e-13 0 0)
(7.10543e-13 0 0)
(6.96332e-13 0 0)
(5.32907e-13 0 0)
(4.40538e-13 0 0)
(5.32906e-13 0 0)
(4.33432e-13 0 0)
(5.32906e-13 0 0)
(5.18697e-13 0 0)
(1.56319e-13 0 0)
(3.55273e-14 0 0)
(2.41584e-13 0 0)
(2.84225e-14 0 0)
(7.10534e-14 0 0)
(1.06582e-13 0 0)
(2.55795e-13 0 0)
(2.84218e-13 0 0)
(5.1159e-13 0 0)
(3.69483e-13 0 0)
(4.40536e-13 0 0)
(5.47118e-13 0 0)
(4.54748e-13 0 0)
(4.76063e-13 0 0)
(6.03961e-13 0 0)
(9.80549e-13 0 0)
(7.74492e-13 0 0)
(1.03029e-12 0 0)
(1.07292e-12 0 0)
(7.24753e-13 0 0)
(6.60805e-13 0 0)
(7.67385e-13 0 0)
(4.12115e-13 0 0)
(4.68958e-13 0 0)
(3.48166e-13 0 0)
(4.97376e-14 0 0)
(-2.70006e-13 0 0)
(-2.41585e-13 0 0)
(-1.35002e-13 0 0)
(-3.55283e-14 0 0)
(2.20269e-13 0 0)
(5.32907e-13 0 0)
(5.89751e-13 0 0)
(7.95808e-13 0 0)
(9.73444e-13 0 0)
(9.37917e-13 0 0)
(1.01608e-12 0 0)
(8.88179e-13 0 0)
(8.73967e-13 0 0)
(8.59757e-13 0 0)
(6.46593e-13 0 0)
(5.96856e-13 0 0)
(4.76064e-13 0 0)
(2.84217e-13 0 0)
(4.54747e-13 0 0)
(4.26326e-13 0 0)
(6.46594e-13 0 0)
(7.24754e-13 0 0)
(6.03961e-13 0 0)
(5.47119e-13 0 0)
(6.67909e-13 0 0)
(6.89227e-13 0 0)
(4.76063e-13 0 0)
(6.39489e-13 0 0)
(6.6791e-13 0 0)
(6.75016e-13 0 0)
(6.6791e-13 0 0)
(5.25801e-13 0 0)
(4.1922e-13 0 0)
(6.39489e-14 0 0)
(1.91847e-13 0 0)
(3.33955e-13 0 0)
(5.61328e-13 0 0)
(8.45546e-13 0 0)
(9.23706e-13 0 0)
(7.17648e-13 0 0)
(5.96856e-13 0 0)
(5.7554e-13 0 0)
(7.67385e-13 0 0)
(4.97381e-13 0 0)
(6.75014e-13 0 0)
(7.74493e-13 0 0)
(5.61328e-13 0 0)
(1.63426e-13 0 0)
(2.8421e-14 0 0)
(-1.20792e-13 0 0)
(-2.27374e-13 0 0)
(-2.84217e-13 0 0)
(-1.63425e-13 0 0)
(-3.12639e-13 0 0)
(-4.76063e-13 0 0)
(-5.82645e-13 0 0)
(-6.75016e-13 0 0)
(-9.37917e-13 0 0)
(-9.80549e-13 0 0)
(-7.17648e-13 0 0)
(-7.6028e-13 0 0)
(-8.10019e-13 0 0)
(-8.66861e-13 0 0)
(-6.67911e-13 0 0)
(-5.8975e-13 0 0)
(-3.2685e-13 0 0)
(-1.20791e-13 0 0)
(1.70529e-13 0 0)
(2.4869e-13 0 0)
(5.8975e-13 0 0)
(4.1922e-13 0 0)
(-4.26331e-14 0 0)
(-4.19219e-13 0 0)
(-1.49215e-13 0 0)
(-3.48166e-13 0 0)
(-4.90274e-13 0 0)
(-5.25802e-13 0 0)
(-6.75015e-13 0 0)
(-5.82645e-13 0 0)
(-4.61853e-13 0 0)
(-8.2423e-13 0 0)
(-1.03739e-12 0 0)
(-1.08713e-12 0 0)
(-1.15818e-12 0 0)
(-7.81598e-13 0 0)
(-4.61853e-13 0 0)
(-4.26325e-13 0 0)
(-3.2685e-13 0 0)
(-1.35003e-13 0 0)
(7.10538e-14 0 0)
(-9.23699e-14 0 0)
(-3.33956e-13 0 0)
(-2.77111e-13 0 0)
(-2.20269e-13 0 0)
(-1.35002e-13 0 0)
(-2.84222e-14 0 0)
(-1.98952e-13 0 0)
(-3.55274e-14 0 0)
(-2.1316e-14 0 0)
(-5.68438e-14 0 0)
(-1.63425e-13 0 0)
(-3.33955e-13 0 0)
(-2.77112e-13 0 0)
(-5.25801e-13 0 0)
(-5.68435e-13 0 0)
(-7.17647e-13 0 0)
(-8.02914e-13 0 0)
(-1.03739e-12 0 0)
(-8.10019e-13 0 0)
(-9.94759e-13 0 0)
(-8.73968e-13 0 0)
(-9.37916e-13 0 0)
(-1.02318e-12 0 0)
(-7.74491e-13 0 0)
(-7.10543e-13 0 0)
(-7.03437e-13 0 0)
(-5.96856e-13 0 0)
(-7.4607e-13 0 0)
(-7.60281e-13 0 0)
(-4.9738e-13 0 0)
(-4.33431e-13 0 0)
(-3.12639e-13 0 0)
(-6.39486e-14 0 0)
(1.91846e-13 0 0)
(4.12115e-13 0 0)
(8.2423e-13 0 0)
(1.28608e-12 0 0)
(1.84031e-12 0 0)
(2.54374e-12 0 0)
(3.09086e-12 0 0)
(4.34142e-12 0 0)
(5.45697e-12 0 0)
(7.5886e-12 0 0)
(1.13687e-11 0 0)
(1.7188e-11 0 0)
(2.54943e-11 0 0)
(3.93783e-11 0 0)
(6.18243e-11 0 0)
(9.76428e-11 0 0)
(1.54692e-10 0 0)
(2.43368e-10 0 0)
(3.81455e-10 0 0)
(5.96145e-10 0 0)
(9.28829e-10 0 0)
(1.44141e-09 0 0)
(2.22882e-09 0 0)
(3.43412e-09 0 0)
(5.27238e-09 0 0)
(8.0645e-09 0 0)
(1.22889e-08 0 0)
(1.86561e-08 0 0)
(2.82149e-08 0 0)
(4.2509e-08 0 0)
(6.37997e-08 0 0)
(9.53846e-08 0 0)
(1.42054e-07 0 0)
(2.10731e-07 0 0)
(3.11385e-07 0 0)
(4.58298e-07 0 0)
(6.71842e-07 0 0)
(9.80948e-07 0 0)
(1.4265e-06 0 0)
(2.06603e-06 0 0)
(2.98007e-06 0 0)
(4.28085e-06 0 0)
(6.12401e-06 0 0)
(8.72435e-06 0 0)
(1.23769e-05 0 0)
(1.74846e-05 0 0)
(2.45955e-05 0 0)
(3.44509e-05 0 0)
(4.80481e-05 0 0)
(6.67226e-05 0 0)
(9.22521e-05 0 0)
(0.000126992 0 0)
(0.000174043 0 0)
(0.000237471 0 0)
(0.000322567 0 0)
(0.000436191 0 0)
(0.000587172 0 0)
(0.000786818 0 0)
(0.00104952 0 0)
(0.00139349 0 0)
(0.00184161 0 0)
(0.0024225 0 0)
(0.00317166 0 0)
(0.00413291 0 0)
(0.00535992 0 0)
(0.00691802 0 0)
(0.00888621 0 0)
(0.0113593 0 0)
(0.0144502 0 0)
(0.0182925 0 0)
(0.0230432 0 0)
(0.028885 0 0)
(0.0360291 0 0)
(0.0447178 0 0)
(0.0552264 0 0)
(0.0678653 0 0)
(0.0829815 0 0)
(0.100959 0 0)
(0.122219 0 0)
(0.14722 0 0)
(0.176454 0 0)
(0.210446 0 0)
(0.249748 0 0)
(0.294936 0 0)
(0.346603 0 0)
(0.405351 0 0)
(0.471785 0 0)
(0.546505 0 0)
(0.630094 0 0)
(0.723111 0 0)
(0.826085 0 0)
(0.939499 0 0)
(1.06379 0 0)
(1.19934 0 0)
(1.34645 0 0)
(1.50539 0 0)
(1.67632 0 0)
(1.85935 0 0)
(2.0545 0 0)
(2.26174 0 0)
(2.48094 0 0)
(2.71193 0 0)
(2.95444 0 0)
(3.20818 0 0)
(3.47279 0 0)
(3.74786 0 0)
(4.03294 0 0)
(4.32757 0 0)
(4.63123 0 0)
(4.9434 0 0)
(5.26356 0 0)
(5.59116 0 0)
(5.92567 0 0)
(6.26655 0 0)
(6.61328 0 0)
(6.96536 0 0)
(7.32229 0 0)
(7.6836 0 0)
(8.04884 0 0)
(8.4176 0 0)
(8.78947 0 0)
(9.1641 0 0)
(9.54112 0 0)
(9.92024 0 0)
(10.3012 0 0)
(10.6836 0 0)
(11.0674 0 0)
(11.4523 0 0)
(11.838 0 0)
(12.2245 0 0)
(12.6116 0 0)
(12.9992 0 0)
(13.3871 0 0)
(13.7753 0 0)
(14.1636 0 0)
(14.5521 0 0)
(14.9406 0 0)
(15.3291 0 0)
(15.7176 0 0)
(16.106 0 0)
(16.4944 0 0)
(16.8826 0 0)
(17.2708 0 0)
(17.6588 0 0)
(18.0467 0 0)
(18.4346 0 0)
(18.8222 0 0)
(19.2098 0 0)
(19.5973 0 0)
(19.9847 0 0)
(20.3721 0 0)
(20.7593 0 0)
(21.1465 0 0)
(21.5337 0 0)
(21.9208 0 0)
(22.3079 0 0)
(22.695 0 0)
(23.0822 0 0)
(23.4693 0 0)
(23.8565 0 0)
(24.2438 0 0)
(24.6311 0 0)
(25.0185 0 0)
(25.406 0 0)
(25.7936 0 0)
(26.1813 0 0)
(26.5691 0 0)
(26.9571 0 0)
(27.3453 0 0)
(27.7336 0 0)
(28.1222 0 0)
(28.5109 0 0)
(28.8998 0 0)
(29.2889 0 0)
(29.6783 0 0)
(30.0679 0 0)
(30.4577 0 0)
(30.8478 0 0)
(31.2382 0 0)
(31.6288 0 0)
(32.0197 0 0)
(32.4109 0 0)
(32.8024 0 0)
(33.1942 0 0)
(33.5863 0 0)
(33.9787 0 0)
(34.3715 0 0)
(34.7645 0 0)
(35.1579 0 0)
(35.5517 0 0)
(35.9457 0 0)
(36.3402 0 0)
(36.7349 0 0)
(37.13 0 0)
(37.5255 0 0)
(37.9214 0 0)
(38.3176 0 0)
(38.7141 0 0)
(39.1111 0 0)
(39.5084 0 0)
(39.9061 0 0)
(40.3042 0 0)
(40.7027 0 0)
(41.1016 0 0)
(41.5009 0 0)
(41.9006 0 0)
(42.3007 0 0)
(42.7013 0 0)
(43.1022 0 0)
(43.5037 0 0)
(43.9055 0 0)
(44.3079 0 0)
(44.7107 0 0)
(45.1139 0 0)
(45.5177 0 0)
(45.9219 0 0)
(46.3266 0 0)
(46.7319 0 0)
(47.1377 0 0)
(47.544 0 0)
(47.9508 0 0)
(48.3582 0 0)
(48.7662 0 0)
(49.1747 0 0)
(49.5838 0 0)
(49.9935 0 0)
(50.4039 0 0)
(50.8148 0 0)
(51.2264 0 0)
(51.6386 0 0)
(52.0515 0 0)
(52.465 0 0)
(52.8793 0 0)
(53.2942 0 0)
(53.7098 0 0)
(54.1261 0 0)
(54.5431 0 0)
(54.9609 0 0)
(55.3794 0 0)
(55.7986 0 0)
(56.2186 0 0)
(56.6394 0 0)
(57.061 0 0)
(57.4834 0 0)
(57.9066 0 0)
(58.3306 0 0)
(58.7554 0 0)
(59.1811 0 0)
(59.6076 0 0)
(60.035 0 0)
(60.4633 0 0)
(60.8924 0 0)
(61.3225 0 0)
(61.7535 0 0)
(62.1854 0 0)
(62.6182 0 0)
(63.052 0 0)
(63.4868 0 0)
(63.9226 0 0)
(64.3593 0 0)
(64.7971 0 0)
(65.2359 0 0)
(65.6758 0 0)
(66.1167 0 0)
(66.5587 0 0)
(67.0018 0 0)
(67.446 0 0)
(67.8914 0 0)
(68.3379 0 0)
(68.7855 0 0)
(69.2344 0 0)
(69.6845 0 0)
(70.1358 0 0)
(70.5884 0 0)
(71.0421 0 0)
(71.4973 0 0)
(71.9537 0 0)
(72.4116 0 0)
(72.8705 0 0)
(73.3313 0 0)
(73.7927 0 0)
(74.2568 0 0)
(74.7205 0 0)
(75.1883 0 0)
(75.6538 0 0)
(76.1262 0 0)
(76.5929 0 0)
(77.0707 0 0)
(77.5378 0 0)
(78.0221 0 0)
(78.489 0 0)
(78.9803 0 0)
(79.447 0 0)
(79.945 0 0)
(80.4125 0 0)
(80.9161 0 0)
(81.3862 0 0)
(81.8938 0 0)
(82.3681 0 0)
(82.8786 0 0)
(83.358 0 0)
(83.8716 0 0)
(84.3559 0 0)
(84.8732 0 0)
(85.3623 0 0)
(85.8832 0 0)
(86.3783 0 0)
(86.9014 0 0)
(87.4046 0 0)
(87.9276 0 0)
(88.4421 0 0)
(88.9614 0 0)
(89.4921 0 0)
(90.0021 0 0)
(90.5567 0 0)
(91.049 0 0)
(91.6377 0 0)
(92.1025 0 0)
(92.7349 0 0)
(93.1648 0 0)
(93.8452 0 0)
(94.2403 0 0)
(94.9631 0 0)
(95.3361 0 0)
(96.0825 0 0)
(96.4579 0 0)
(97.211 0 0)
(97.5935 0 0)
(98.3576 0 0)
(98.7435 0 0)
(99.5179 0 0)
(99.9103 0 0)
(100.696 0 0)
(101.094 0 0)
(101.891 0 0)
(102.295 0 0)
(103.105 0 0)
(103.516 0 0)
(104.339 0 0)
(104.758 0 0)
(105.591 0 0)
(106.024 0 0)
(106.866 0 0)
(107.313 0 0)
(108.166 0 0)
(108.625 0 0)
(109.493 0 0)
(109.965 0 0)
(110.845 0 0)
(111.335 0 0)
(112.229 0 0)
(112.734 0 0)
(113.643 0 0)
(114.164 0 0)
(115.088 0 0)
(115.625 0 0)
(116.561 0 0)
(117.109 0 0)
(118.052 0 0)
(118.603 0 0)
(119.54 0 0)
(120.077 0 0)
(120.982 0 0)
(121.466 0 0)
(122.295 0 0)
(122.732 0 0)
(123.5 0 0)
(123.926 0 0)
(124.667 0 0)
(125.106 0 0)
(125.846 0 0)
(126.307 0 0)
(127.049 0 0)
(127.533 0 0)
(128.266 0 0)
(128.766 0 0)
(129.486 0 0)
(129.995 0 0)
(130.698 0 0)
(131.215 0 0)
(131.902 0 0)
(132.428 0 0)
(133.099 0 0)
(133.637 0 0)
(134.293 0 0)
(134.841 0 0)
(135.484 0 0)
(136.04 0 0)
(136.67 0 0)
(137.233 0 0)
(137.849 0 0)
(138.416 0 0)
(139.021 0 0)
(139.589 0 0)
(140.186 0 0)
(140.75 0 0)
(141.342 0 0)
(141.899 0 0)
(142.488 0 0)
(143.038 0 0)
(143.622 0 0)
(144.164 0 0)
(144.741 0 0)
(145.276 0 0)
(145.842 0 0)
(146.373 0 0)
(146.928 0 0)
(147.455 0 0)
(147.998 0 0)
(148.519 0 0)
(149.05 0 0)
(149.559 0 0)
(150.076 0 0)
(150.572 0 0)
(151.079 0 0)
(151.565 0 0)
(152.062 0 0)
(152.539 0 0)
(153.023 0 0)
(153.486 0 0)
(153.951 0 0)
(154.394 0 0)
(154.835 0 0)
(155.254 0 0)
(155.672 0 0)
(156.069 0 0)
(156.465 0 0)
(156.841 0 0)
(157.216 0 0)
(157.572 0 0)
(157.918 0 0)
(158.249 0 0)
(158.555 0 0)
(158.846 0 0)
(159.101 0 0)
(159.328 0 0)
(159.53 0 0)
(159.673 0 0)
(159.812 0 0)
(159.88 0 0)
(159.934 0 0)
(159.954 0 0)
(159.951 0 0)
(159.908 0 0)
(159.785 0 0)
(159.518 0 0)
(159.27 0 0)
(158.747 0 0)
(158.382 0 0)
(157.626 0 0)
(157.149 0 0)
(156.172 0 0)
(155.594 0 0)
(154.419 0 0)
(153.758 0 0)
(152.417 0 0)
(151.725 0 0)
(150.34 0 0)
(149.739 0 0)
(148.512 0 0)
(149.269 0 0)
)
;

boundaryField
{
    sideLeft
    {
        type            symmetryPlane;
    }
    sideRight
    {
        type            myWaveTransmissive;
        phi             phi.air;
        rho             rho.air;
        psi             thermo:psi.air;
        gamma           1.4;
        fieldInf        (0 0 0);
        lInf            10;
        value           uniform (148.833 0 0);
    }
    topbottom
    {
        type            empty;
    }
    frontback
    {
        type            empty;
    }
}


// ************************************************************************* //
