/*--------------------------------*- C++ -*----------------------------------*\
| =========                 |                                                 |
| \\      /  F ield         | OpenFOAM: The Open Source CFD Toolbox           |
|  \\    /   O peration     | Version:  2.4.0                                 |
|   \\  /    A nd           | Web:      www.OpenFOAM.org                      |
|    \\/     M anipulation  |                                                 |
\*---------------------------------------------------------------------------*/
FoamFile
{
    version     2.0;
    format      ascii;
    class       volVectorField;
    location    "0.12";
    object      U.waterMean;
}
// * * * * * * * * * * * * * * * * * * * * * * * * * * * * * * * * * * * * * //

dimensions      [0 1 -1 0 0 0 0];

internalField   nonuniform List<vector> 
1000
(
(-7.06095e-14 0 0)
(-3.22115e-14 0 0)
(-6.26105e-14 0 0)
(-3.50655e-14 0 0)
(-7.70106e-14 0 0)
(-2.66576e-14 0 0)
(-6.40256e-14 0 0)
(-5.44217e-14 0 0)
(-6.10297e-14 0 0)
(-4.27097e-14 0 0)
(-6.46653e-14 0 0)
(-8.50458e-14 0 0)
(-4.85244e-14 0 0)
(-9.30511e-14 0 0)
(-3.27978e-14 0 0)
(-7.27415e-14 0 0)
(-9.13072e-15 0 0)
(-4.64397e-14 0 0)
(-3.13264e-15 0 0)
(-8.05337e-14 0 0)
(1.46206e-15 0 0)
(-7.98055e-14 0 0)
(-3.18858e-14 0 0)
(-6.85673e-14 0 0)
(-8.41815e-14 0 0)
(-7.58327e-14 0 0)
(-7.8663e-14 0 0)
(-5.9745e-14 0 0)
(-1.1114e-13 0 0)
(-2.5657e-14 0 0)
(-8.06523e-14 0 0)
(-6.59679e-14 0 0)
(-3.92162e-14 0 0)
(-5.35629e-14 0 0)
(-3.34585e-15 0 0)
(-8.68987e-14 0 0)
(4.20634e-14 0 0)
(-5.59252e-14 0 0)
(2.1831e-14 0 0)
(-4.64336e-14 0 0)
(1.88704e-14 0 0)
(-3.69183e-14 0 0)
(5.17498e-15 0 0)
(-1.71831e-14 0 0)
(2.66096e-14 0 0)
(1.33228e-15 0 0)
(4.76658e-15 0 0)
(1.24641e-14 0 0)
(-2.98422e-15 0 0)
(1.10606e-14 0 0)
(-1.92732e-14 0 0)
(2.70477e-14 0 0)
(2.74768e-15 0 0)
(4.83167e-14 0 0)
(2.03276e-14 0 0)
(4.55457e-14 0 0)
(2.15353e-14 0 0)
(2.96651e-14 0 0)
(-4.51183e-15 0 0)
(3.24302e-14 0 0)
(-9.37297e-15 0 0)
(7.135e-14 0 0)
(3.15304e-14 0 0)
(1.32221e-14 0 0)
(5.02649e-14 0 0)
(4.08859e-14 0 0)
(7.50213e-14 0 0)
(5.64703e-14 0 0)
(4.36808e-14 0 0)
(5.62392e-14 0 0)
(2.19205e-14 0 0)
(3.90441e-14 0 0)
(-1.06551e-15 0 0)
(4.0033e-14 0 0)
(1.97945e-14 0 0)
(-1.64586e-15 0 0)
(2.93332e-14 0 0)
(-1.1404e-14 0 0)
(-3.1974e-15 0 0)
(1.49806e-14 0 0)
(2.9545e-17 0 0)
(2.16241e-14 0 0)
(2.1719e-14 0 0)
(5.54991e-14 0 0)
(-1.29059e-15 0 0)
(3.15953e-14 0 0)
(-9.50326e-15 0 0)
(2.80899e-14 0 0)
(-2.39805e-15 0 0)
(-1.48561e-14 0 0)
(1.79825e-14 0 0)
(1.10727e-15 0 0)
(-7.49607e-15 0 0)
(7.8514e-15 0 0)
(-3.20276e-14 0 0)
(1.68158e-14 0 0)
(-7.25874e-14 0 0)
(4.29834e-15 0 0)
(-7.90358e-14 0 0)
(-5.73528e-14 0 0)
(-8.68696e-14 0 0)
(-7.34524e-14 0 0)
(-9.9997e-14 0 0)
(-1.02176e-13 0 0)
(-1.17559e-13 0 0)
(-1.34198e-13 0 0)
(-1.05575e-13 0 0)
(-1.32966e-13 0 0)
(-1.70998e-13 0 0)
(-1.37348e-13 0 0)
(-1.8679e-13 0 0)
(-1.44809e-13 0 0)
(-1.88495e-13 0 0)
(-1.73882e-13 0 0)
(-1.99645e-13 0 0)
(-1.87607e-13 0 0)
(-1.66966e-13 0 0)
(-1.41564e-13 0 0)
(-1.37117e-13 0 0)
(-1.70897e-13 0 0)
(-1.15688e-13 0 0)
(-1.51873e-13 0 0)
(-9.78774e-14 0 0)
(-1.38739e-13 0 0)
(-1.03947e-13 0 0)
(-1.45466e-13 0 0)
(-1.07647e-13 0 0)
(-1.48491e-13 0 0)
(-8.88301e-14 0 0)
(-1.70388e-13 0 0)
(-9.11336e-14 0 0)
(-1.76463e-13 0 0)
(-1.27708e-13 0 0)
(-1.44015e-13 0 0)
(-1.01418e-13 0 0)
(-1.25961e-13 0 0)
(-1.07363e-13 0 0)
(-9.53726e-14 0 0)
(-6.79932e-14 0 0)
(-7.47372e-14 0 0)
(-8.05578e-14 0 0)
(-6.03371e-14 0 0)
(-1.07564e-13 0 0)
(-6.33096e-14 0 0)
(-1.16742e-13 0 0)
(-5.77496e-14 0 0)
(-8.12328e-14 0 0)
(-8.16887e-14 0 0)
(-6.3043e-14 0 0)
(-8.48032e-14 0 0)
(-8.67158e-14 0 0)
(-1.09779e-13 0 0)
(-1.07997e-13 0 0)
(-1.031e-13 0 0)
(-8.49988e-14 0 0)
(-7.79939e-14 0 0)
(-1.01122e-13 0 0)
(-8.06348e-14 0 0)
(-1.0686e-13 0 0)
(-8.29323e-14 0 0)
(-1.25961e-13 0 0)
(-5.22844e-14 0 0)
(-1.00743e-13 0 0)
(-4.9229e-14 0 0)
(-8.68873e-14 0 0)
(-3.30583e-14 0 0)
(-1.04598e-13 0 0)
(-4.88501e-14 0 0)
(-1.09287e-13 0 0)
(-1.04989e-13 0 0)
(-1.16659e-13 0 0)
(-1.01205e-13 0 0)
(-1.40148e-13 0 0)
(-1.0175e-13 0 0)
(-1.60855e-13 0 0)
(-1.2987e-13 0 0)
(-1.83711e-13 0 0)
(-1.43145e-13 0 0)
(-2.00793e-13 0 0)
(-1.93013e-13 0 0)
(-1.86452e-13 0 0)
(-1.79507e-13 0 0)
(-1.56432e-13 0 0)
(-2.12487e-13 0 0)
(-1.47592e-13 0 0)
(-2.10972e-13 0 0)
(-1.40481e-13 0 0)
(-2.44621e-13 0 0)
(-1.06262e-13 0 0)
(-2.1472e-13 0 0)
(-1.05202e-13 0 0)
(-2.00604e-13 0 0)
(-1.16891e-13 0 0)
(-1.84267e-13 0 0)
(-1.5446e-13 0 0)
(-1.84392e-13 0 0)
(-1.69891e-13 0 0)
(-1.71063e-13 0 0)
(-1.578e-13 0 0)
(-1.79323e-13 0 0)
(-1.45549e-13 0 0)
(-2.07816e-13 0 0)
(-1.23137e-13 0 0)
(-1.7792e-13 0 0)
(-1.48575e-13 0 0)
(-1.4819e-13 0 0)
(-1.07476e-13 0 0)
(-1.25778e-13 0 0)
(-1.34399e-13 0 0)
(-1.10324e-13 0 0)
(-1.06321e-13 0 0)
(-8.03566e-14 0 0)
(-1.10004e-13 0 0)
(-4.67006e-14 0 0)
(-8.07233e-14 0 0)
(-3.21937e-14 0 0)
(-6.17342e-14 0 0)
(-4.49418e-14 0 0)
(-2.75275e-14 0 0)
(-1.1801e-14 0 0)
(-4.75476e-15 0 0)
(-2.37853e-14 0 0)
(-1.11201e-14 0 0)
(-2.77586e-14 0 0)
(-4.38106e-14 0 0)
(-2.15178e-14 0 0)
(-1.73729e-14 0 0)
(-4.90864e-14 0 0)
(-1.32519e-14 0 0)
(-5.44097e-14 0 0)
(-7.09951e-14 0 0)
(-7.45715e-14 0 0)
(-9.93751e-14 0 0)
(-4.58066e-14 0 0)
(-9.10262e-14 0 0)
(-1.82435e-14 0 0)
(-8.87347e-14 0 0)
(-3.12109e-14 0 0)
(-1.03236e-13 0 0)
(-8.05103e-14 0 0)
(-7.57321e-14 0 0)
(-4.94421e-14 0 0)
(-9.67459e-14 0 0)
(-7.46708e-15 0 0)
(-4.77009e-14 0 0)
(-2.16007e-14 0 0)
(-3.49704e-14 0 0)
(-8.8286e-15 0 0)
(-1.49568e-14 0 0)
(9.68102e-15 0 0)
(6.74435e-15 0 0)
(2.41583e-14 0 0)
(2.06353e-14 0 0)
(-2.58043e-14 0 0)
(2.7024e-14 0 0)
(-1.70764e-14 0 0)
(3.92987e-14 0 0)
(-8.64471e-15 0 0)
(4.03407e-14 0 0)
(-1.07643e-14 0 0)
(6.02418e-14 0 0)
(8.34922e-15 0 0)
(4.51133e-14 0 0)
(2.84631e-14 0 0)
(9.55102e-15 0 0)
(4.16968e-14 0 0)
(-2.63015e-14 0 0)
(7.89112e-14 0 0)
(1.35184e-14 0 0)
(1.03526e-13 0 0)
(3.47754e-14 0 0)
(1.02075e-13 0 0)
(4.0963e-14 0 0)
(8.2411e-14 0 0)
(4.85835e-14 0 0)
(9.90672e-14 0 0)
(4.3379e-14 0 0)
(1.24315e-13 0 0)
(6.66374e-14 0 0)
(1.24505e-13 0 0)
(1.18797e-13 0 0)
(1.37472e-13 0 0)
(1.39207e-13 0 0)
(6.38132e-14 0 0)
(1.56739e-13 0 0)
(1.05978e-13 0 0)
(1.19306e-13 0 0)
(1.24357e-13 0 0)
(1.32836e-13 0 0)
(1.01341e-13 0 0)
(1.23765e-13 0 0)
(1.04965e-13 0 0)
(1.26441e-13 0 0)
(6.68742e-14 0 0)
(1.44264e-13 0 0)
(9.96241e-14 0 0)
(1.11159e-13 0 0)
(1.29259e-13 0 0)
(1.43068e-13 0 0)
(1.02147e-13 0 0)
(1.62785e-13 0 0)
(1.32658e-13 0 0)
(1.4501e-13 0 0)
(1.48373e-13 0 0)
(1.08867e-13 0 0)
(1.6349e-13 0 0)
(1.29591e-13 0 0)
(1.27122e-13 0 0)
(1.1888e-13 0 0)
(8.89778e-14 0 0)
(1.18767e-13 0 0)
(9.22168e-14 0 0)
(1.18163e-13 0 0)
(9.3478e-14 0 0)
(1.39272e-13 0 0)
(1.14628e-13 0 0)
(1.33464e-13 0 0)
(1.04527e-13 0 0)
(9.73622e-14 0 0)
(1.37774e-13 0 0)
(1.18678e-13 0 0)
(1.07991e-13 0 0)
(1.3521e-13 0 0)
(1.04118e-13 0 0)
(1.48935e-13 0 0)
(1.00933e-13 0 0)
(8.79712e-14 0 0)
(9.9689e-14 0 0)
(8.11085e-14 0 0)
(8.84331e-14 0 0)
(1.1708e-13 0 0)
(1.23403e-13 0 0)
(8.8901e-14 0 0)
(1.50949e-13 0 0)
(7.74317e-14 0 0)
(1.38123e-13 0 0)
(8.2429e-14 0 0)
(8.36547e-14 0 0)
(1.01104e-13 0 0)
(9.97839e-14 0 0)
(1.20093e-13 0 0)
(9.82503e-14 0 0)
(1.12283e-13 0 0)
(6.84552e-14 0 0)
(1.17156e-13 0 0)
(4.53804e-14 0 0)
(1.29093e-13 0 0)
(7.57146e-14 0 0)
(9.4117e-14 0 0)
(7.53591e-14 0 0)
(8.63013e-14 0 0)
(8.59165e-14 0 0)
(9.29745e-14 0 0)
(5.41317e-14 0 0)
(1.19016e-13 0 0)
(8.53894e-14 0 0)
(7.71356e-14 0 0)
(1.02484e-13 0 0)
(1.09406e-13 0 0)
(1.16979e-13 0 0)
(1.08002e-13 0 0)
(9.66574e-14 0 0)
(7.32749e-14 0 0)
(1.0204e-13 0 0)
(1.12325e-13 0 0)
(1.36477e-13 0 0)
(7.35356e-14 0 0)
(1.20839e-13 0 0)
(8.687e-14 0 0)
(1.05166e-13 0 0)
(9.91385e-14 0 0)
(1.2229e-13 0 0)
(1.02188e-13 0 0)
(1.30793e-13 0 0)
(1.03935e-13 0 0)
(1.6153e-13 0 0)
(1.3212e-13 0 0)
(1.89111e-13 0 0)
(1.2521e-13 0 0)
(2.03831e-13 0 0)
(1.43945e-13 0 0)
(1.81141e-13 0 0)
(1.5838e-13 0 0)
(1.43151e-13 0 0)
(1.4379e-13 0 0)
(7.22806e-14 0 0)
(1.68214e-13 0 0)
(8.9813e-14 0 0)
(1.51908e-13 0 0)
(8.19555e-14 0 0)
(1.13722e-13 0 0)
(1.10809e-13 0 0)
(1.38419e-13 0 0)
(7.07172e-14 0 0)
(1.43411e-13 0 0)
(7.31447e-14 0 0)
(1.23214e-13 0 0)
(9.9269e-14 0 0)
(1.55768e-13 0 0)
(1.22954e-13 0 0)
(1.48355e-13 0 0)
(1.47029e-13 0 0)
(1.17181e-13 0 0)
(1.68481e-13 0 0)
(1.48071e-13 0 0)
(1.47663e-13 0 0)
(1.5311e-13 0 0)
(1.59795e-13 0 0)
(1.08317e-13 0 0)
(1.59712e-13 0 0)
(1.09146e-13 0 0)
(1.7516e-13 0 0)
(1.16725e-13 0 0)
(1.45774e-13 0 0)
(1.1252e-13 0 0)
(1.38698e-13 0 0)
(9.95412e-14 0 0)
(1.31551e-13 0 0)
(3.8287e-14 0 0)
(1.60807e-13 0 0)
(7.84975e-14 0 0)
(1.16298e-13 0 0)
(9.18972e-14 0 0)
(1.26849e-13 0 0)
(1.01904e-13 0 0)
(8.65501e-14 0 0)
(1.17689e-13 0 0)
(7.66025e-14 0 0)
(9.54553e-14 0 0)
(5.84602e-14 0 0)
(1.07611e-13 0 0)
(8.12862e-14 0 0)
(7.80237e-14 0 0)
(1.15392e-13 0 0)
(1.21325e-13 0 0)
(8.96943e-14 0 0)
(1.00707e-13 0 0)
(4.81988e-14 0 0)
(7.82127e-14 0 0)
(8.76971e-15 0 0)
(8.84858e-14 0 0)
(2.47213e-14 0 0)
(5.46111e-14 0 0)
(5.12775e-14 0 0)
(5.68731e-14 0 0)
(5.98453e-14 0 0)
(4.30887e-14 0 0)
(6.53638e-14 0 0)
(3.88194e-14 0 0)
(3.11158e-14 0 0)
(2.82263e-14 0 0)
(1.33406e-14 0 0)
(6.39901e-14 0 0)
(5.33321e-14 0 0)
(3.91452e-14 0 0)
(6.79455e-14 0 0)
(5.82645e-14 0 0)
(2.19856e-14 0 0)
(6.88217e-14 0 0)
(-2.2429e-14 0 0)
(9.26187e-14 0 0)
(-1.0338e-14 0 0)
(5.50311e-14 0 0)
(-3.37741e-14 0 0)
(2.69115e-14 0 0)
(-3.96599e-14 0 0)
(-9.50364e-15 0 0)
(-4.28277e-14 0 0)
(2.45705e-15 0 0)
(-2.42235e-14 0 0)
(-3.22706e-14 0 0)
(-1.24107e-14 0 0)
(8.58558e-15 0 0)
(4.83162e-15 0 0)
(-1.2008e-14 0 0)
(-1.60406e-14 0 0)
(-3.04583e-14 0 0)
(5.46494e-15 0 0)
(-5.79267e-14 0 0)
(1.25113e-14 0 0)
(-1.24522e-14 0 0)
(1.1854e-14 0 0)
(-4.96133e-14 0 0)
(2.87293e-14 0 0)
(-3.32e-14 0 0)
(-1.15049e-14 0 0)
(-4.02523e-14 0 0)
(-1.57445e-14 0 0)
(-7.80588e-14 0 0)
(1.01231e-15 0 0)
(-5.07032e-14 0 0)
(-5.96263e-14 0 0)
(-4.51787e-14 0 0)
(-5.52505e-14 0 0)
(-2.73796e-14 0 0)
(-1.99723e-14 0 0)
(-1.43411e-14 0 0)
(-3.78126e-14 0 0)
(-2.54617e-15 0 0)
(-3.0873e-14 0 0)
(2.16122e-14 0 0)
(-8.69234e-15 0 0)
(-2.61893e-14 0 0)
(-7.15286e-15 0 0)
(-2.98189e-14 0 0)
(7.81572e-15 0 0)
(-4.57053e-14 0 0)
(1.27775e-14 0 0)
(-6.34096e-14 0 0)
(3.08312e-14 0 0)
(-3.95651e-14 0 0)
(1.97648e-14 0 0)
(-2.07478e-14 0 0)
(8.46134e-15 0 0)
(-1.08061e-14 0 0)
(2.48333e-14 0 0)
(9.75826e-15 0 0)
(3.97311e-14 0 0)
(5.73407e-14 0 0)
(8.34314e-15 0 0)
(5.29234e-14 0 0)
(-2.41581e-14 0 0)
(7.28599e-14 0 0)
(-5.89725e-15 0 0)
(6.96804e-14 0 0)
(1.16708e-14 0 0)
(3.95771e-14 0 0)
(1.59223e-14 0 0)
(5.34029e-14 0 0)
(1.26741e-15 0 0)
(1.62061e-14 0 0)
(-4.94404e-15 0 0)
(5.98031e-15 0 0)
(5.61938e-15 0 0)
(2.68761e-14 0 0)
(1.94867e-14 0 0)
(2.06293e-14 0 0)
(2.0132e-14 0 0)
(-8.68031e-15 0 0)
(3.00782e-15 0 0)
(-1.39739e-14 0 0)
(-1.5111e-14 0 0)
(-1.93016e-15 0 0)
(-9.34374e-15 0 0)
(5.24619e-15 0 0)
(-2.56623e-14 0 0)
(3.4615e-14 0 0)
(-1.47614e-14 0 0)
(3.1483e-14 0 0)
(2.82501e-14 0 0)
(1.09323e-13 0 0)
(1.3874e-13 0 0)
(2.37321e-13 0 0)
(3.71247e-13 0 0)
(5.94612e-13 0 0)
(9.34393e-13 0 0)
(1.44009e-12 0 0)
(2.29451e-12 0 0)
(3.58508e-12 0 0)
(5.61103e-12 0 0)
(8.7188e-12 0 0)
(1.36153e-11 0 0)
(2.10821e-11 0 0)
(3.26156e-11 0 0)
(5.02663e-11 0 0)
(7.7208e-11 0 0)
(1.18344e-10 0 0)
(1.80514e-10 0 0)
(2.74496e-10 0 0)
(4.15777e-10 0 0)
(6.2754e-10 0 0)
(9.435e-10 0 0)
(1.41326e-09 0 0)
(2.10892e-09 0 0)
(3.13507e-09 0 0)
(4.64267e-09 0 0)
(6.8488e-09 0 0)
(1.00641e-08 0 0)
(1.47313e-08 0 0)
(2.14786e-08 0 0)
(3.1193e-08 0 0)
(4.51218e-08 0 0)
(6.50103e-08 0 0)
(9.32904e-08 0 0)
(1.33334e-07 0 0)
(1.89794e-07 0 0)
(2.69063e-07 0 0)
(3.79879e-07 0 0)
(5.3413e-07 0 0)
(7.47908e-07 0 0)
(1.0429e-06 0 0)
(1.44815e-06 0 0)
(2.00244e-06 0 0)
(2.75719e-06 0 0)
(3.7803e-06 0 0)
(5.16093e-06 0 0)
(7.01559e-06 0 0)
(9.49565e-06 0 0)
(1.27968e-05 0 0)
(1.71705e-05 0 0)
(2.29383e-05 0 0)
(3.0509e-05 0 0)
(4.03995e-05 0 0)
(5.32593e-05 0 0)
(6.99003e-05 0 0)
(9.13313e-05 0 0)
(0.000118798 0 0)
(0.00015383 0 0)
(0.000198294 0 0)
(0.000254454 0 0)
(0.000325038 0 0)
(0.000413313 0 0)
(0.00052317 0 0)
(0.000659207 0 0)
(0.000826826 0 0)
(0.00103233 0 0)
(0.00128303 0 0)
(0.00158734 0 0)
(0.00195489 0 0)
(0.00239662 0 0)
(0.00292486 0 0)
(0.00355343 0 0)
(0.00429773 0 0)
(0.00517474 0 0)
(0.00620314 0 0)
(0.00740325 0 0)
(0.00879709 0 0)
(0.0104083 0 0)
(0.0122622 0 0)
(0.0143855 0 0)
(0.0168064 0 0)
(0.0195545 0 0)
(0.0226604 0 0)
(0.0261559 0 0)
(0.0300734 0 0)
(0.0344461 0 0)
(0.0393075 0 0)
(0.0446916 0 0)
(0.0506322 0 0)
(0.0571629 0 0)
(0.0643173 0 0)
(0.0721281 0 0)
(0.0806274 0 0)
(0.0898467 0 0)
(0.0998161 0 0)
(0.110565 0 0)
(0.122121 0 0)
(0.134511 0 0)
(0.147761 0 0)
(0.161894 0 0)
(0.176934 0 0)
(0.1929 0 0)
(0.209813 0 0)
(0.22769 0 0)
(0.24655 0 0)
(0.266407 0 0)
(0.287275 0 0)
(0.309168 0 0)
(0.332097 0 0)
(0.356073 0 0)
(0.381106 0 0)
(0.407204 0 0)
(0.434374 0 0)
(0.462625 0 0)
(0.491962 0 0)
(0.522391 0 0)
(0.553916 0 0)
(0.586542 0 0)
(0.620273 0 0)
(0.655113 0 0)
(0.691063 0 0)
(0.728128 0 0)
(0.766309 0 0)
(0.805608 0 0)
(0.846029 0 0)
(0.887572 0 0)
(0.930239 0 0)
(0.974032 0 0)
(1.01895 0 0)
(1.065 0 0)
(1.11218 0 0)
(1.16049 0 0)
(1.20994 0 0)
(1.26052 0 0)
(1.31223 0 0)
(1.36508 0 0)
(1.41908 0 0)
(1.47421 0 0)
(1.53048 0 0)
(1.58789 0 0)
(1.64645 0 0)
(1.70616 0 0)
(1.76702 0 0)
(1.82902 0 0)
(1.89217 0 0)
(1.95648 0 0)
(2.02195 0 0)
(2.08857 0 0)
(2.15635 0 0)
(2.22529 0 0)
(2.29539 0 0)
(2.36666 0 0)
(2.4391 0 0)
(2.51271 0 0)
(2.58748 0 0)
(2.66344 0 0)
(2.74057 0 0)
(2.81887 0 0)
(2.89837 0 0)
(2.97904 0 0)
(3.0609 0 0)
(3.14395 0 0)
(3.2282 0 0)
(3.31363 0 0)
(3.40027 0 0)
(3.48811 0 0)
(3.57715 0 0)
(3.6674 0 0)
(3.75885 0 0)
(3.85152 0 0)
(3.94541 0 0)
(4.04051 0 0)
(4.13683 0 0)
(4.23439 0 0)
(4.33316 0 0)
(4.43317 0 0)
(4.53442 0 0)
(4.6369 0 0)
(4.74063 0 0)
(4.8456 0 0)
(4.95182 0 0)
(5.05929 0 0)
(5.16801 0 0)
(5.278 0 0)
(5.38925 0 0)
(5.50176 0 0)
(5.61555 0 0)
(5.7306 0 0)
(5.84694 0 0)
(5.96455 0 0)
(6.08345 0 0)
(6.20364 0 0)
(6.32512 0 0)
(6.4479 0 0)
(6.57198 0 0)
(6.69737 0 0)
(6.82406 0 0)
(6.95206 0 0)
(7.08138 0 0)
(7.21203 0 0)
(7.34399 0 0)
(7.47729 0 0)
(7.61192 0 0)
(7.74789 0 0)
(7.8852 0 0)
(8.02386 0 0)
(8.16387 0 0)
(8.30524 0 0)
(8.44797 0 0)
(8.59207 0 0)
(8.73754 0 0)
(8.88438 0 0)
(9.0326 0 0)
(9.18221 0 0)
(9.33321 0 0)
(9.48561 0 0)
(9.63941 0 0)
(9.79462 0 0)
(9.95123 0 0)
(10.1093 0 0)
(10.2687 0 0)
(10.4296 0 0)
(10.5919 0 0)
(10.7557 0 0)
(10.9209 0 0)
(11.0876 0 0)
(11.2557 0 0)
(11.4253 0 0)
(11.5963 0 0)
(11.7689 0 0)
(11.9429 0 0)
(12.1184 0 0)
(12.2954 0 0)
(12.4739 0 0)
(12.6539 0 0)
(12.8355 0 0)
(13.0185 0 0)
(13.2031 0 0)
(13.3892 0 0)
(13.5769 0 0)
(13.7661 0 0)
(13.9569 0 0)
(14.1492 0 0)
(14.3432 0 0)
(14.5387 0 0)
(14.7357 0 0)
(14.9344 0 0)
(15.1347 0 0)
(15.3366 0 0)
(15.5402 0 0)
(15.7453 0 0)
(15.9521 0 0)
(16.1605 0 0)
(16.3706 0 0)
(16.5824 0 0)
(16.7958 0 0)
(17.0109 0 0)
(17.2278 0 0)
(17.4463 0 0)
(17.6665 0 0)
(17.8884 0 0)
(18.1121 0 0)
(18.3375 0 0)
(18.5646 0 0)
(18.7936 0 0)
(19.0242 0 0)
(19.2567 0 0)
(19.491 0 0)
(19.727 0 0)
(19.9649 0 0)
(20.2046 0 0)
(20.4461 0 0)
(20.6896 0 0)
(20.9348 0 0)
(21.1819 0 0)
(21.4309 0 0)
(21.6819 0 0)
(21.9346 0 0)
(22.1895 0 0)
(22.4459 0 0)
(22.7049 0 0)
(22.9651 0 0)
(23.2281 0 0)
(23.4921 0 0)
(23.7593 0 0)
(24.0272 0 0)
(24.2987 0 0)
(24.5704 0 0)
(24.8462 0 0)
(25.1219 0 0)
(25.402 0 0)
(25.6818 0 0)
(25.9663 0 0)
(26.2502 0 0)
(26.5393 0 0)
(26.8273 0 0)
(27.1209 0 0)
(27.4133 0 0)
(27.7114 0 0)
(28.0082 0 0)
(28.311 0 0)
(28.6124 0 0)
(28.9197 0 0)
(29.2259 0 0)
(29.5377 0 0)
(29.8491 0 0)
(30.1651 0 0)
(30.4821 0 0)
(30.802 0 0)
(31.1252 0 0)
(31.4487 0 0)
(31.7785 0 0)
(32.1054 0 0)
(32.4423 0 0)
(32.7724 0 0)
(33.1165 0 0)
(33.45 0 0)
(33.8015 0 0)
(34.1385 0 0)
(34.4976 0 0)
(34.8381 0 0)
(35.2049 0 0)
(35.549 0 0)
(35.9238 0 0)
(36.2716 0 0)
(36.6546 0 0)
(37.0062 0 0)
(37.3976 0 0)
(37.7532 0 0)
(38.153 0 0)
(38.5129 0 0)
(38.9214 0 0)
(39.2857 0 0)
(39.703 0 0)
(40.072 0 0)
(40.4983 0 0)
(40.8723 0 0)
(41.3077 0 0)
(41.6869 0 0)
(42.1318 0 0)
(42.5164 0 0)
(42.9708 0 0)
(43.3611 0 0)
(43.8251 0 0)
(44.221 0 0)
(44.6942 0 0)
(45.0952 0 0)
(45.5766 0 0)
(45.9809 0 0)
(46.4675 0 0)
(46.8702 0 0)
(47.3589 0 0)
(47.7499 0 0)
(48.2302 0 0)
(48.6131 0 0)
(49.0926 0 0)
(49.4758 0 0)
(49.962 0 0)
(50.3501 0 0)
(50.846 0 0)
(51.239 0 0)
(51.7437 0 0)
(52.1407 0 0)
(52.6523 0 0)
(53.0526 0 0)
(53.57 0 0)
(53.9734 0 0)
(54.4965 0 0)
(54.9032 0 0)
(55.4323 0 0)
(55.8425 0 0)
(56.3777 0 0)
(56.7915 0 0)
(57.3327 0 0)
(57.7502 0 0)
(58.2971 0 0)
(58.7183 0 0)
(59.2707 0 0)
(59.6955 0 0)
(60.2533 0 0)
(60.6818 0 0)
(61.245 0 0)
(61.6771 0 0)
(62.2455 0 0)
(62.6812 0 0)
(63.2548 0 0)
(63.6939 0 0)
(64.2727 0 0)
(64.7151 0 0)
(65.299 0 0)
(65.7446 0 0)
(66.3335 0 0)
(66.7821 0 0)
(67.3759 0 0)
(67.8274 0 0)
(68.426 0 0)
(68.8803 0 0)
(69.4835 0 0)
(69.9404 0 0)
(70.5481 0 0)
(71.0073 0 0)
(71.6193 0 0)
(72.0807 0 0)
(72.6968 0 0)
(73.1599 0 0)
(73.7799 0 0)
(74.2446 0 0)
(74.8684 0 0)
(75.3343 0 0)
(75.9616 0 0)
(76.4283 0 0)
(77.0586 0 0)
(77.5256 0 0)
(78.1585 0 0)
(78.6251 0 0)
(79.2601 0 0)
(79.7257 0 0)
(80.3624 0 0)
(80.8263 0 0)
(81.4641 0 0)
(81.9257 0 0)
(82.5639 0 0)
(83.0221 0 0)
(83.6595 0 0)
(84.1128 0 0)
(84.7481 0 0)
(85.1946 0 0)
(85.8262 0 0)
(86.2638 0 0)
(86.89 0 0)
(87.3168 0 0)
(87.9365 0 0)
(88.3519 0 0)
(88.9632 0 0)
(89.3615 0 0)
(89.9602 0 0)
(90.3321 0 0)
(90.9163 0 0)
(91.2569 0 0)
(91.8248 0 0)
(92.132 0 0)
(92.6807 0 0)
(92.9555 0 0)
(93.4858 0 0)
(93.7317 0 0)
(94.2507 0 0)
(94.4766 0 0)
(95.0039 0 0)
(95.2358 0 0)
(96.6224 0 0)
)
;

boundaryField
{
    sideLeft
    {
        type            symmetryPlane;
    }
    sideRight
    {
        type            calculated;
        value           uniform (96.6224 0 0);
    }
    topbottom
    {
        type            empty;
    }
    frontback
    {
        type            empty;
    }
}


// ************************************************************************* //
