/*--------------------------------*- C++ -*----------------------------------*\
| =========                 |                                                 |
| \\      /  F ield         | OpenFOAM: The Open Source CFD Toolbox           |
|  \\    /   O peration     | Version:  2.4.0                                 |
|   \\  /    A nd           | Web:      www.OpenFOAM.org                      |
|    \\/     M anipulation  |                                                 |
\*---------------------------------------------------------------------------*/
FoamFile
{
    version     2.0;
    format      ascii;
    class       volVectorField;
    location    "0.12";
    object      U.water;
}
// * * * * * * * * * * * * * * * * * * * * * * * * * * * * * * * * * * * * * //

dimensions      [0 1 -1 0 0 0 0];

internalField   nonuniform List<vector> 
1000
(
(4.26338e-14 0 0)
(3.55268e-14 0 0)
(6.39492e-14 0 0)
(2.13162e-13 0 0)
(5.60245e-19 0 0)
(5.68429e-14 0 0)
(3.41061e-13 0 0)
(2.91322e-13 0 0)
(3.48166e-13 0 0)
(8.3844e-13 0 0)
(9.66338e-13 0 0)
(9.0239e-13 0 0)
(1.02318e-12 0 0)
(9.66339e-13 0 0)
(1.03029e-12 0 0)
(8.10019e-13 0 0)
(7.53175e-13 0 0)
(6.18173e-13 0 0)
(6.67909e-13 0 0)
(6.11068e-13 0 0)
(4.68957e-13 0 0)
(1.84742e-13 0 0)
(2.06057e-13 0 0)
(1.5632e-13 0 0)
(-9.23704e-14 0 0)
(-9.9476e-14 0 0)
(-1.42107e-14 0 0)
(-7.10595e-15 0 0)
(-7.81589e-14 0 0)
(-1.13688e-13 0 0)
(-2.13162e-13 0 0)
(-3.62377e-13 0 0)
(-4.33431e-13 0 0)
(-2.27373e-13 0 0)
(-1.77636e-13 0 0)
(-3.19743e-13 0 0)
(-9.23719e-14 0 0)
(-4.26325e-13 0 0)
(-4.76064e-13 0 0)
(-4.19219e-13 0 0)
(-5.54224e-13 0 0)
(-5.68434e-13 0 0)
(-4.0501e-13 0 0)
(-1.98952e-13 0 0)
(-3.69483e-13 0 0)
(-2.27374e-13 0 0)
(-1.42109e-13 0 0)
(-1.06582e-13 0 0)
(1.06582e-13 0 0)
(1.20792e-13 0 0)
(1.91847e-13 0 0)
(4.26321e-14 0 0)
(-7.10503e-15 0 0)
(-3.05534e-13 0 0)
(-4.97376e-14 0 0)
(-1.20793e-13 0 0)
(-4.1922e-13 0 0)
(-2.13163e-13 0 0)
(-4.05009e-13 0 0)
(-4.26326e-13 0 0)
(-3.33954e-13 0 0)
(-1.06582e-13 0 0)
(-2.34479e-13 0 0)
(-4.9738e-13 0 0)
(-5.7554e-13 0 0)
(-3.33955e-13 0 0)
(-1.42109e-13 0 0)
(4.9738e-14 0 0)
(-7.10541e-14 0 0)
(-2.13163e-13 0 0)
(-1.7053e-13 0 0)
(-2.70007e-13 0 0)
(-4.05009e-13 0 0)
(-3.62377e-13 0 0)
(-3.05533e-13 0 0)
(-3.26849e-13 0 0)
(-3.33956e-13 0 0)
(-3.12638e-13 0 0)
(-2.84217e-13 0 0)
(-4.40537e-13 0 0)
(-4.12115e-13 0 0)
(-9.23707e-14 0 0)
(-1.63425e-13 0 0)
(3.55271e-13 0 0)
(5.82646e-13 0 0)
(3.76587e-13 0 0)
(4.33432e-13 0 0)
(5.96855e-13 0 0)
(6.75016e-13 0 0)
(7.95808e-13 0 0)
(8.02913e-13 0 0)
(7.88702e-13 0 0)
(8.31335e-13 0 0)
(5.75539e-13 0 0)
(2.84218e-13 0 0)
(3.4106e-13 0 0)
(3.48167e-13 0 0)
(3.12638e-13 0 0)
(2.77112e-13 0 0)
(4.54747e-13 0 0)
(6.46594e-13 0 0)
(6.03961e-13 0 0)
(2.4869e-13 0 0)
(1.06581e-13 0 0)
(-6.39488e-14 0 0)
(-7.1051e-15 0 0)
(2.34479e-13 0 0)
(4.68958e-13 0 0)
(6.25278e-13 0 0)
(6.60804e-13 0 0)
(2.48691e-13 0 0)
(4.05009e-13 0 0)
(6.89227e-13 0 0)
(5.04485e-13 0 0)
(5.32907e-13 0 0)
(9.30811e-13 0 0)
(1.08713e-12 0 0)
(8.10019e-13 0 0)
(7.17648e-13 0 0)
(6.39489e-13 0 0)
(7.46069e-13 0 0)
(5.68435e-13 0 0)
(4.05009e-13 0 0)
(1.70531e-13 0 0)
(3.76587e-13 0 0)
(5.18697e-13 0 0)
(7.46069e-13 0 0)
(9.52128e-13 0 0)
(9.94759e-13 0 0)
(7.38965e-13 0 0)
(5.68433e-13 0 0)
(5.96857e-13 0 0)
(6.75015e-13 0 0)
(4.33431e-13 0 0)
(5.82645e-13 0 0)
(6.46594e-13 0 0)
(6.03961e-13 0 0)
(5.32907e-13 0 0)
(3.76587e-13 0 0)
(3.19744e-13 0 0)
(2.62901e-13 0 0)
(1.98952e-13 0 0)
(1.35004e-13 0 0)
(2.98427e-13 0 0)
(3.05534e-13 0 0)
(2.27373e-13 0 0)
(3.41061e-13 0 0)
(4.61853e-13 0 0)
(3.97904e-13 0 0)
(4.26326e-13 0 0)
(3.83693e-13 0 0)
(5.61329e-13 0 0)
(3.83693e-13 0 0)
(3.55271e-13 0 0)
(3.97904e-13 0 0)
(3.4106e-13 0 0)
(-4.97377e-14 0 0)
(3.55269e-14 0 0)
(-9.94758e-14 0 0)
(-4.19221e-13 0 0)
(-7.10542e-13 0 0)
(-8.88179e-13 0 0)
(-1.00186e-12 0 0)
(-8.88179e-13 0 0)
(-7.24753e-13 0 0)
(-5.82646e-13 0 0)
(-5.68433e-13 0 0)
(-5.04486e-13 0 0)
(-6.75015e-13 0 0)
(-6.11067e-13 0 0)
(-4.40536e-13 0 0)
(-2.77112e-13 0 0)
(-2.20268e-13 0 0)
(-3.55272e-13 0 0)
(-4.05009e-13 0 0)
(-3.83694e-13 0 0)
(-5.25801e-13 0 0)
(-4.76064e-13 0 0)
(-4.26325e-13 0 0)
(-6.6791e-13 0 0)
(-7.03437e-13 0 0)
(-5.40012e-13 0 0)
(-4.33431e-13 0 0)
(-3.19743e-13 0 0)
(-1.42109e-13 0 0)
(4.26333e-14 0 0)
(6.39479e-14 0 0)
(-2.27372e-13 0 0)
(-1.63426e-13 0 0)
(-2.70005e-13 0 0)
(-1.35004e-13 0 0)
(-1.91846e-13 0 0)
(2.13154e-14 0 0)
(7.81602e-14 0 0)
(3.55271e-13 0 0)
(4.40537e-13 0 0)
(8.02913e-13 0 0)
(1.0445e-12 0 0)
(1.19371e-12 0 0)
(8.02914e-13 0 0)
(6.53699e-13 0 0)
(7.24755e-13 0 0)
(7.17647e-13 0 0)
(5.68435e-13 0 0)
(1.49214e-13 0 0)
(5.68436e-14 0 0)
(-1.42112e-14 0 0)
(-4.1922e-13 0 0)
(-4.54747e-13 0 0)
(-3.12639e-13 0 0)
(-3.33955e-13 0 0)
(-4.47642e-13 0 0)
(-1.98951e-13 0 0)
(-2.84222e-14 0 0)
(-1.20792e-13 0 0)
(-4.40537e-13 0 0)
(-6.6791e-13 0 0)
(-6.18172e-13 0 0)
(-5.68434e-13 0 0)
(-4.1922e-13 0 0)
(-1.5632e-13 0 0)
(7.10567e-15 0 0)
(-6.39491e-14 0 0)
(-7.81598e-14 0 0)
(-1.13687e-13 0 0)
(1.42107e-14 0 0)
(2.27373e-13 0 0)
(3.69483e-13 0 0)
(4.76063e-13 0 0)
(3.55272e-13 0 0)
(3.19744e-13 0 0)
(5.04485e-13 0 0)
(4.19221e-13 0 0)
(6.25277e-13 0 0)
(4.26326e-13 0 0)
(2.06057e-13 0 0)
(3.2685e-13 0 0)
(2.91322e-13 0 0)
(-1.35003e-13 0 0)
(-6.30777e-20 0 0)
(1.77636e-13 0 0)
(2.84217e-13 0 0)
(1.91847e-13 0 0)
(3.4106e-13 0 0)
(1.91847e-13 0 0)
(2.1316e-14 0 0)
(-1.06581e-13 0 0)
(-2.06058e-13 0 0)
(-2.62901e-13 0 0)
(-5.18696e-13 0 0)
(-4.90274e-13 0 0)
(-5.68434e-13 0 0)
(-3.90799e-13 0 0)
(-4.26325e-13 0 0)
(-4.61853e-13 0 0)
(-5.68434e-13 0 0)
(-7.81598e-13 0 0)
(-8.52651e-13 0 0)
(-6.32384e-13 0 0)
(-5.25801e-13 0 0)
(-6.18173e-13 0 0)
(-6.18172e-13 0 0)
(-4.9738e-13 0 0)
(-1.35003e-13 0 0)
(-2.84214e-14 0 0)
(-6.39494e-14 0 0)
(1.63426e-13 0 0)
(1.63424e-13 0 0)
(-7.81588e-14 0 0)
(2.20267e-13 0 0)
(-7.10467e-15 0 0)
(-7.12259e-19 0 0)
(1.13687e-13 0 0)
(1.06581e-13 0 0)
(-1.49213e-13 0 0)
(-9.23712e-14 0 0)
(-2.06057e-13 0 0)
(-3.90799e-13 0 0)
(-6.75015e-13 0 0)
(-5.04486e-13 0 0)
(-6.32383e-13 0 0)
(-4.54747e-13 0 0)
(-5.68439e-14 0 0)
(-9.94749e-14 0 0)
(5.68426e-14 0 0)
(-7.81594e-14 0 0)
(-3.55272e-14 0 0)
(1.49214e-13 0 0)
(3.12639e-13 0 0)
(2.77112e-13 0 0)
(6.75015e-13 0 0)
(6.39489e-13 0 0)
(4.12114e-13 0 0)
(2.41585e-13 0 0)
(4.40536e-13 0 0)
(3.76588e-13 0 0)
(2.41585e-13 0 0)
(3.69482e-13 0 0)
(1.84741e-13 0 0)
(1.20793e-13 0 0)
(2.48689e-13 0 0)
(1.06582e-13 0 0)
(3.2685e-13 0 0)
(2.55795e-13 0 0)
(1.91847e-13 0 0)
(2.41584e-13 0 0)
(7.10544e-14 0 0)
(-1.63425e-13 0 0)
(-2.34479e-13 0 0)
(-6.25277e-13 0 0)
(-3.97904e-13 0 0)
(-1.49214e-13 0 0)
(1.13687e-13 0 0)
(4.26326e-13 0 0)
(2.98428e-13 0 0)
(1.98952e-13 0 0)
(9.23703e-14 0 0)
(3.55273e-14 0 0)
(6.39492e-14 0 0)
(4.26321e-14 0 0)
(-1.42108e-14 0 0)
(7.816e-14 0 0)
(2.06057e-13 0 0)
(3.2685e-13 0 0)
(2.77111e-13 0 0)
(1.35003e-13 0 0)
(8.52653e-14 0 0)
(-9.94762e-14 0 0)
(-2.84215e-14 0 0)
(2.13165e-14 0 0)
(-1.35003e-13 0 0)
(1.7053e-13 0 0)
(5.61329e-13 0 0)
(5.40012e-13 0 0)
(5.68442e-14 0 0)
(1.63424e-13 0 0)
(1.13687e-13 0 0)
(2.84217e-13 0 0)
(2.91322e-13 0 0)
(2.34479e-13 0 0)
(5.18696e-13 0 0)
(4.40537e-13 0 0)
(7.24753e-13 0 0)
(9.66339e-13 0 0)
(7.81596e-13 0 0)
(6.89227e-13 0 0)
(7.31858e-13 0 0)
(6.60805e-13 0 0)
(8.10019e-13 0 0)
(8.17124e-13 0 0)
(6.53699e-13 0 0)
(5.68434e-13 0 0)
(8.31335e-13 0 0)
(1.00187e-12 0 0)
(9.66338e-13 0 0)
(6.11067e-13 0 0)
(4.40537e-13 0 0)
(1.84741e-13 0 0)
(-2.13163e-14 0 0)
(-1.49214e-13 0 0)
(-1.27898e-13 0 0)
(-2.41585e-13 0 0)
(-4.40536e-13 0 0)
(-3.69482e-13 0 0)
(-2.27374e-13 0 0)
(-2.98429e-13 0 0)
(-1.63424e-13 0 0)
(-1.06582e-13 0 0)
(-3.4106e-13 0 0)
(-3.62377e-13 0 0)
(-2.13163e-13 0 0)
(-1.35003e-13 0 0)
(-2.98428e-13 0 0)
(-1.91847e-13 0 0)
(-1.42108e-13 0 0)
(1.84741e-13 0 0)
(2.70007e-13 0 0)
(3.4106e-13 0 0)
(3.2685e-13 0 0)
(5.75539e-13 0 0)
(5.40013e-13 0 0)
(5.40012e-13 0 0)
(7.17648e-13 0 0)
(7.53175e-13 0 0)
(5.25801e-13 0 0)
(4.61854e-13 0 0)
(5.68433e-13 0 0)
(3.83694e-13 0 0)
(4.90274e-13 0 0)
(4.97381e-13 0 0)
(1.56319e-13 0 0)
(3.55273e-14 0 0)
(2.55795e-13 0 0)
(6.39496e-14 0 0)
(1.06581e-13 0 0)
(9.23713e-14 0 0)
(2.41584e-13 0 0)
(3.12639e-13 0 0)
(5.54223e-13 0 0)
(4.33431e-13 0 0)
(3.83693e-13 0 0)
(4.9738e-13 0 0)
(4.61853e-13 0 0)
(4.68958e-13 0 0)
(6.39489e-13 0 0)
(9.9476e-13 0 0)
(7.67386e-13 0 0)
(1.02318e-12 0 0)
(1.0516e-12 0 0)
(7.31859e-13 0 0)
(6.67911e-13 0 0)
(7.46069e-13 0 0)
(4.33432e-13 0 0)
(4.54747e-13 0 0)
(3.41061e-13 0 0)
(3.55267e-14 0 0)
(-2.70006e-13 0 0)
(-1.5632e-13 0 0)
(-1.27896e-13 0 0)
(-9.23717e-14 0 0)
(1.49215e-13 0 0)
(5.40012e-13 0 0)
(6.32383e-13 0 0)
(8.10018e-13 0 0)
(9.45022e-13 0 0)
(9.166e-13 0 0)
(1.01608e-12 0 0)
(8.88179e-13 0 0)
(9.52127e-13 0 0)
(8.2423e-13 0 0)
(5.8975e-13 0 0)
(5.96856e-13 0 0)
(4.9738e-13 0 0)
(2.91322e-13 0 0)
(4.40536e-13 0 0)
(4.40537e-13 0 0)
(6.25277e-13 0 0)
(7.10543e-13 0 0)
(5.96855e-13 0 0)
(5.89751e-13 0 0)
(6.39488e-13 0 0)
(6.25278e-13 0 0)
(5.04485e-13 0 0)
(6.53699e-13 0 0)
(6.6791e-13 0 0)
(6.89226e-13 0 0)
(6.96332e-13 0 0)
(5.47118e-13 0 0)
(3.97904e-13 0 0)
(6.39489e-14 0 0)
(1.98952e-13 0 0)
(3.2685e-13 0 0)
(6.03961e-13 0 0)
(8.81073e-13 0 0)
(8.88179e-13 0 0)
(7.31859e-13 0 0)
(6.75015e-13 0 0)
(5.04486e-13 0 0)
(7.10542e-13 0 0)
(5.68435e-13 0 0)
(6.67909e-13 0 0)
(7.81598e-13 0 0)
(5.61328e-13 0 0)
(5.68443e-14 0 0)
(4.26319e-14 0 0)
(-9.94755e-14 0 0)
(-2.34479e-13 0 0)
(-2.20268e-13 0 0)
(-1.70531e-13 0 0)
(-3.12639e-13 0 0)
(-4.61853e-13 0 0)
(-6.11067e-13 0 0)
(-7.03438e-13 0 0)
(-9.80549e-13 0 0)
(-9.73444e-13 0 0)
(-6.75016e-13 0 0)
(-7.53175e-13 0 0)
(-8.17125e-13 0 0)
(-8.31334e-13 0 0)
(-6.67911e-13 0 0)
(-5.96856e-13 0 0)
(-3.05534e-13 0 0)
(-1.35002e-13 0 0)
(1.8474e-13 0 0)
(2.55796e-13 0 0)
(5.68434e-13 0 0)
(3.90799e-13 0 0)
(2.13158e-14 0 0)
(-4.3343e-13 0 0)
(-2.06058e-13 0 0)
(-3.19744e-13 0 0)
(-5.11591e-13 0 0)
(-5.47118e-13 0 0)
(-6.46594e-13 0 0)
(-5.68434e-13 0 0)
(-4.90275e-13 0 0)
(-8.45546e-13 0 0)
(-1.0516e-12 0 0)
(-1.07292e-12 0 0)
(-1.1724e-12 0 0)
(-7.88703e-13 0 0)
(-4.1922e-13 0 0)
(-3.90798e-13 0 0)
(-3.12639e-13 0 0)
(-1.63424e-13 0 0)
(4.97375e-14 0 0)
(-5.68428e-14 0 0)
(-3.05534e-13 0 0)
(-2.91322e-13 0 0)
(-2.3448e-13 0 0)
(-1.35002e-13 0 0)
(-7.10596e-15 0 0)
(-1.98952e-13 0 0)
(-6.39491e-14 0 0)
(-1.42106e-14 0 0)
(-2.13167e-14 0 0)
(-1.49214e-13 0 0)
(-3.33955e-13 0 0)
(-2.98428e-13 0 0)
(-5.82645e-13 0 0)
(-5.47119e-13 0 0)
(-7.03436e-13 0 0)
(-8.24231e-13 0 0)
(-1.07292e-12 0 0)
(-8.10019e-13 0 0)
(-9.30811e-13 0 0)
(-8.66863e-13 0 0)
(-9.73443e-13 0 0)
(-1.0445e-12 0 0)
(-7.95808e-13 0 0)
(-7.03438e-13 0 0)
(-6.75015e-13 0 0)
(-5.47118e-13 0 0)
(-7.24753e-13 0 0)
(-7.67386e-13 0 0)
(-4.83169e-13 0 0)
(-4.26326e-13 0 0)
(-3.33955e-13 0 0)
(-7.1054e-14 0 0)
(1.84741e-13 0 0)
(3.83693e-13 0 0)
(8.73968e-13 0 0)
(1.35714e-12 0 0)
(1.81899e-12 0 0)
(2.50822e-12 0 0)
(3.11218e-12 0 0)
(4.29168e-12 0 0)
(5.44276e-12 0 0)
(7.56728e-12 0 0)
(1.13047e-11 0 0)
(1.71312e-11 0 0)
(2.54303e-11 0 0)
(3.92077e-11 0 0)
(6.15543e-11 0 0)
(9.73941e-11 0 0)
(1.54159e-10 0 0)
(2.42466e-10 0 0)
(3.80133e-10 0 0)
(5.94078e-10 0 0)
(9.25624e-10 0 0)
(1.43656e-09 0 0)
(2.22158e-09 0 0)
(3.42314e-09 0 0)
(5.25568e-09 0 0)
(8.03941e-09 0 0)
(1.22515e-08 0 0)
(1.86005e-08 0 0)
(2.81323e-08 0 0)
(4.23871e-08 0 0)
(6.36203e-08 0 0)
(9.51219e-08 0 0)
(1.4167e-07 0 0)
(2.10174e-07 0 0)
(3.1058e-07 0 0)
(4.57138e-07 0 0)
(6.7018e-07 0 0)
(9.78575e-07 0 0)
(1.42313e-06 0 0)
(2.06126e-06 0 0)
(2.97334e-06 0 0)
(4.27142e-06 0 0)
(6.11085e-06 0 0)
(8.70607e-06 0 0)
(1.23516e-05 0 0)
(1.74498e-05 0 0)
(2.45478e-05 0 0)
(3.43859e-05 0 0)
(4.79599e-05 0 0)
(6.66035e-05 0 0)
(9.20922e-05 0 0)
(0.000126778 0 0)
(0.000173759 0 0)
(0.000237094 0 0)
(0.000322072 0 0)
(0.000435542 0 0)
(0.000586327 0 0)
(0.000785723 0 0)
(0.00104811 0 0)
(0.00139168 0 0)
(0.00183931 0 0)
(0.00241958 0 0)
(0.00316798 0 0)
(0.00412829 0 0)
(0.00535416 0 0)
(0.0069109 0 0)
(0.00887743 0 0)
(0.0113485 0 0)
(0.0144371 0 0)
(0.0182767 0 0)
(0.0230242 0 0)
(0.0288623 0 0)
(0.0360022 0 0)
(0.0446861 0 0)
(0.0551893 0 0)
(0.0678222 0 0)
(0.0829317 0 0)
(0.100902 0 0)
(0.122154 0 0)
(0.147147 0 0)
(0.176372 0 0)
(0.210354 0 0)
(0.249647 0 0)
(0.294825 0 0)
(0.346481 0 0)
(0.405219 0 0)
(0.471644 0 0)
(0.546354 0 0)
(0.629934 0 0)
(0.722944 0 0)
(0.82591 0 0)
(0.939319 0 0)
(1.06361 0 0)
(1.19915 0 0)
(1.34626 0 0)
(1.5052 0 0)
(1.67613 0 0)
(1.85916 0 0)
(2.05432 0 0)
(2.26156 0 0)
(2.48077 0 0)
(2.71176 0 0)
(2.95429 0 0)
(3.20804 0 0)
(3.47266 0 0)
(3.74774 0 0)
(4.03283 0 0)
(4.32747 0 0)
(4.63114 0 0)
(4.94333 0 0)
(5.26349 0 0)
(5.59111 0 0)
(5.92563 0 0)
(6.26652 0 0)
(6.61326 0 0)
(6.96534 0 0)
(7.32228 0 0)
(7.6836 0 0)
(8.04885 0 0)
(8.41762 0 0)
(8.7895 0 0)
(9.16412 0 0)
(9.54116 0 0)
(9.92028 0 0)
(10.3012 0 0)
(10.6837 0 0)
(11.0674 0 0)
(11.4523 0 0)
(11.8381 0 0)
(12.2246 0 0)
(12.6117 0 0)
(12.9993 0 0)
(13.3872 0 0)
(13.7753 0 0)
(14.1637 0 0)
(14.5521 0 0)
(14.9407 0 0)
(15.3292 0 0)
(15.7177 0 0)
(16.1061 0 0)
(16.4944 0 0)
(16.8827 0 0)
(17.2709 0 0)
(17.6589 0 0)
(18.0468 0 0)
(18.4346 0 0)
(18.8223 0 0)
(19.2099 0 0)
(19.5974 0 0)
(19.9848 0 0)
(20.3721 0 0)
(20.7594 0 0)
(21.1466 0 0)
(21.5337 0 0)
(21.9209 0 0)
(22.308 0 0)
(22.6951 0 0)
(23.0822 0 0)
(23.4694 0 0)
(23.8566 0 0)
(24.2438 0 0)
(24.6311 0 0)
(25.0185 0 0)
(25.406 0 0)
(25.7936 0 0)
(26.1813 0 0)
(26.5692 0 0)
(26.9572 0 0)
(27.3453 0 0)
(27.7337 0 0)
(28.1222 0 0)
(28.5109 0 0)
(28.8998 0 0)
(29.289 0 0)
(29.6783 0 0)
(30.0679 0 0)
(30.4578 0 0)
(30.8479 0 0)
(31.2382 0 0)
(31.6288 0 0)
(32.0198 0 0)
(32.411 0 0)
(32.8025 0 0)
(33.1943 0 0)
(33.5864 0 0)
(33.9788 0 0)
(34.3715 0 0)
(34.7646 0 0)
(35.158 0 0)
(35.5517 0 0)
(35.9458 0 0)
(36.3402 0 0)
(36.735 0 0)
(37.1301 0 0)
(37.5255 0 0)
(37.9214 0 0)
(38.3176 0 0)
(38.7142 0 0)
(39.1111 0 0)
(39.5084 0 0)
(39.9061 0 0)
(40.3042 0 0)
(40.7027 0 0)
(41.1016 0 0)
(41.5009 0 0)
(41.9006 0 0)
(42.3007 0 0)
(42.7013 0 0)
(43.1023 0 0)
(43.5037 0 0)
(43.9056 0 0)
(44.3079 0 0)
(44.7107 0 0)
(45.1139 0 0)
(45.5177 0 0)
(45.9219 0 0)
(46.3267 0 0)
(46.7319 0 0)
(47.1377 0 0)
(47.544 0 0)
(47.9508 0 0)
(48.3582 0 0)
(48.7662 0 0)
(49.1747 0 0)
(49.5839 0 0)
(49.9936 0 0)
(50.4039 0 0)
(50.8149 0 0)
(51.2264 0 0)
(51.6387 0 0)
(52.0515 0 0)
(52.4651 0 0)
(52.8793 0 0)
(53.2942 0 0)
(53.7098 0 0)
(54.1261 0 0)
(54.5431 0 0)
(54.9609 0 0)
(55.3794 0 0)
(55.7986 0 0)
(56.2187 0 0)
(56.6395 0 0)
(57.061 0 0)
(57.4834 0 0)
(57.9066 0 0)
(58.3306 0 0)
(58.7554 0 0)
(59.1811 0 0)
(59.6076 0 0)
(60.035 0 0)
(60.4633 0 0)
(60.8924 0 0)
(61.3225 0 0)
(61.7535 0 0)
(62.1854 0 0)
(62.6182 0 0)
(63.052 0 0)
(63.4868 0 0)
(63.9226 0 0)
(64.3593 0 0)
(64.7971 0 0)
(65.2359 0 0)
(65.6758 0 0)
(66.1167 0 0)
(66.5587 0 0)
(67.0018 0 0)
(67.446 0 0)
(67.8914 0 0)
(68.3379 0 0)
(68.7856 0 0)
(69.2344 0 0)
(69.6845 0 0)
(70.1358 0 0)
(70.5884 0 0)
(71.0422 0 0)
(71.4973 0 0)
(71.9537 0 0)
(72.4116 0 0)
(72.8705 0 0)
(73.3313 0 0)
(73.7927 0 0)
(74.2568 0 0)
(74.7205 0 0)
(75.1883 0 0)
(75.6539 0 0)
(76.1262 0 0)
(76.5929 0 0)
(77.0707 0 0)
(77.5379 0 0)
(78.0221 0 0)
(78.489 0 0)
(78.9803 0 0)
(79.447 0 0)
(79.9451 0 0)
(80.4125 0 0)
(80.9161 0 0)
(81.3863 0 0)
(81.8938 0 0)
(82.3681 0 0)
(82.8786 0 0)
(83.358 0 0)
(83.8717 0 0)
(84.3559 0 0)
(84.8732 0 0)
(85.3623 0 0)
(85.8832 0 0)
(86.3783 0 0)
(86.9014 0 0)
(87.4046 0 0)
(87.9276 0 0)
(88.4421 0 0)
(88.9614 0 0)
(89.4921 0 0)
(90.0021 0 0)
(90.5567 0 0)
(91.049 0 0)
(91.6377 0 0)
(92.1025 0 0)
(92.7349 0 0)
(93.1648 0 0)
(93.8452 0 0)
(94.2404 0 0)
(94.9631 0 0)
(95.3362 0 0)
(96.0825 0 0)
(96.4579 0 0)
(97.211 0 0)
(97.5935 0 0)
(98.3576 0 0)
(98.7435 0 0)
(99.5179 0 0)
(99.9103 0 0)
(100.696 0 0)
(101.094 0 0)
(101.891 0 0)
(102.295 0 0)
(103.105 0 0)
(103.516 0 0)
(104.339 0 0)
(104.758 0 0)
(105.591 0 0)
(106.024 0 0)
(106.866 0 0)
(107.313 0 0)
(108.166 0 0)
(108.625 0 0)
(109.493 0 0)
(109.965 0 0)
(110.845 0 0)
(111.335 0 0)
(112.229 0 0)
(112.734 0 0)
(113.643 0 0)
(114.164 0 0)
(115.088 0 0)
(115.625 0 0)
(116.561 0 0)
(117.109 0 0)
(118.053 0 0)
(118.603 0 0)
(119.54 0 0)
(120.077 0 0)
(120.982 0 0)
(121.466 0 0)
(122.295 0 0)
(122.732 0 0)
(123.5 0 0)
(123.926 0 0)
(124.667 0 0)
(125.106 0 0)
(125.846 0 0)
(126.307 0 0)
(127.049 0 0)
(127.533 0 0)
(128.266 0 0)
(128.766 0 0)
(129.486 0 0)
(129.995 0 0)
(130.698 0 0)
(131.215 0 0)
(131.902 0 0)
(132.428 0 0)
(133.099 0 0)
(133.637 0 0)
(134.293 0 0)
(134.841 0 0)
(135.484 0 0)
(136.04 0 0)
(136.67 0 0)
(137.233 0 0)
(137.849 0 0)
(138.416 0 0)
(139.021 0 0)
(139.589 0 0)
(140.186 0 0)
(140.75 0 0)
(141.342 0 0)
(141.899 0 0)
(142.488 0 0)
(143.038 0 0)
(143.622 0 0)
(144.164 0 0)
(144.741 0 0)
(145.276 0 0)
(145.842 0 0)
(146.373 0 0)
(146.928 0 0)
(147.455 0 0)
(147.998 0 0)
(148.519 0 0)
(149.05 0 0)
(149.559 0 0)
(150.076 0 0)
(150.572 0 0)
(151.079 0 0)
(151.565 0 0)
(152.062 0 0)
(152.539 0 0)
(153.023 0 0)
(153.486 0 0)
(153.951 0 0)
(154.394 0 0)
(154.835 0 0)
(155.254 0 0)
(155.672 0 0)
(156.069 0 0)
(156.465 0 0)
(156.841 0 0)
(157.216 0 0)
(157.572 0 0)
(157.918 0 0)
(158.249 0 0)
(158.555 0 0)
(158.846 0 0)
(159.101 0 0)
(159.328 0 0)
(159.53 0 0)
(159.673 0 0)
(159.813 0 0)
(159.88 0 0)
(159.935 0 0)
(159.953 0 0)
(159.95 0 0)
(159.9 0 0)
(159.786 0 0)
(159.519 0 0)
(159.269 0 0)
(158.748 0 0)
(158.382 0 0)
(157.626 0 0)
(157.148 0 0)
(156.172 0 0)
(155.594 0 0)
(154.419 0 0)
(153.758 0 0)
(152.417 0 0)
(151.725 0 0)
(150.34 0 0)
(149.739 0 0)
(148.513 0 0)
(149.268 0 0)
)
;

boundaryField
{
    sideLeft
    {
        type            symmetryPlane;
    }
    sideRight
    {
        type            zeroGradient;
    }
    topbottom
    {
        type            empty;
    }
    frontback
    {
        type            empty;
    }
}


// ************************************************************************* //
