/*--------------------------------*- C++ -*----------------------------------*\
| =========                 |                                                 |
| \\      /  F ield         | OpenFOAM: The Open Source CFD Toolbox           |
|  \\    /   O peration     | Version:  2.4.0                                 |
|   \\  /    A nd           | Web:      www.OpenFOAM.org                      |
|    \\/     M anipulation  |                                                 |
\*---------------------------------------------------------------------------*/
FoamFile
{
    version     2.0;
    format      ascii;
    class       volVectorField;
    location    "0.12";
    object      Ur;
}
// * * * * * * * * * * * * * * * * * * * * * * * * * * * * * * * * * * * * * //

dimensions      [0 1 -1 0 0 0 0];

internalField   nonuniform List<vector> 
1000
(
(-2.84217e-14 0 0)
(-2.84217e-14 0 0)
(3.55271e-14 0 0)
(4.9738e-14 0 0)
(7.10543e-15 0 0)
(1.25869e-21 0 0)
(-7.10543e-15 0 0)
(-2.84217e-14 0 0)
(2.13163e-14 0 0)
(7.10543e-15 0 0)
(-4.9738e-14 0 0)
(-8.61182e-22 0 0)
(-1.42109e-14 0 0)
(-2.84217e-14 0 0)
(7.10543e-15 0 0)
(3.55271e-14 0 0)
(1.42109e-14 0 0)
(-2.13163e-14 0 0)
(-2.13163e-14 0 0)
(-7.10543e-15 0 0)
(2.13163e-14 0 0)
(-7.10543e-15 0 0)
(-1.42109e-14 0 0)
(4.26326e-14 0 0)
(4.26326e-14 0 0)
(-2.84217e-14 0 0)
(-3.55271e-14 0 0)
(-7.10543e-15 0 0)
(3.55271e-14 0 0)
(-1.42109e-14 0 0)
(-4.9738e-14 0 0)
(6.39488e-14 0 0)
(4.26326e-14 0 0)
(-5.68434e-14 0 0)
(-2.13163e-14 0 0)
(4.26326e-14 0 0)
(-2.13163e-14 0 0)
(-1.61944e-21 0 0)
(2.13163e-14 0 0)
(-4.9738e-14 0 0)
(-2.84217e-14 0 0)
(1.42109e-14 0 0)
(6.39488e-14 0 0)
(2.13163e-14 0 0)
(-3.55271e-14 0 0)
(7.10543e-15 0 0)
(3.55271e-14 0 0)
(-4.26326e-14 0 0)
(-3.55271e-14 0 0)
(3.55271e-14 0 0)
(2.13163e-14 0 0)
(2.13163e-14 0 0)
(-2.84217e-14 0 0)
(7.10543e-15 0 0)
(-2.13163e-14 0 0)
(-4.26326e-14 0 0)
(1.2368e-21 0 0)
(2.13163e-14 0 0)
(1.42109e-14 0 0)
(4.9738e-14 0 0)
(8.52651e-14 0 0)
(-2.13163e-14 0 0)
(-7.81597e-14 0 0)
(-2.84217e-14 0 0)
(4.9738e-14 0 0)
(1.42109e-14 0 0)
(-1.42109e-14 0 0)
(-2.84217e-14 0 0)
(-7.10543e-15 0 0)
(3.55271e-14 0 0)
(-1.42109e-14 0 0)
(2.84217e-14 0 0)
(1.42109e-14 0 0)
(-4.9738e-14 0 0)
(-7.10543e-15 0 0)
(4.26326e-14 0 0)
(-2.13163e-14 0 0)
(-7.10543e-15 0 0)
(4.26326e-14 0 0)
(-7.10543e-14 0 0)
(7.40544e-22 0 0)
(9.23706e-14 0 0)
(1.89479e-22 0 0)
(-2.84217e-14 0 0)
(-7.10543e-14 0 0)
(-2.13163e-14 0 0)
(7.81597e-14 0 0)
(1.42109e-14 0 0)
(-3.55271e-14 0 0)
(7.10543e-15 0 0)
(6.39488e-14 0 0)
(-2.13163e-14 0 0)
(1.12886e-21 0 0)
(-1.42109e-14 0 0)
(-4.26326e-14 0 0)
(-2.84217e-14 0 0)
(-1.4739e-21 0 0)
(5.68434e-14 0 0)
(3.55271e-14 0 0)
(-2.13163e-14 0 0)
(-5.68434e-14 0 0)
(7.44052e-22 0 0)
(1.42109e-14 0 0)
(5.94171e-22 0 0)
(7.10543e-15 0 0)
(3.55271e-14 0 0)
(-7.10543e-15 0 0)
(-4.9738e-14 0 0)
(-2.13163e-14 0 0)
(-7.10543e-15 0 0)
(3.55271e-14 0 0)
(2.84217e-14 0 0)
(-2.13163e-14 0 0)
(-7.10543e-15 0 0)
(4.9738e-14 0 0)
(-7.10543e-15 0 0)
(-3.55271e-14 0 0)
(2.76183e-21 0 0)
(3.55271e-14 0 0)
(1.42109e-14 0 0)
(-2.84217e-14 0 0)
(-2.84217e-14 0 0)
(-1.42109e-14 0 0)
(2.84217e-14 0 0)
(-2.84217e-14 0 0)
(2.02764e-21 0 0)
(7.10543e-15 0 0)
(2.84217e-14 0 0)
(3.55271e-14 0 0)
(-2.13163e-14 0 0)
(-3.27998e-22 0 0)
(-2.13163e-14 0 0)
(3.55271e-14 0 0)
(7.10543e-14 0 0)
(-7.10543e-15 0 0)
(-2.13163e-14 0 0)
(-3.55271e-14 0 0)
(-4.26326e-14 0 0)
(2.84217e-14 0 0)
(1.42109e-14 0 0)
(-2.84217e-14 0 0)
(-7.10543e-15 0 0)
(2.84217e-14 0 0)
(1.42109e-14 0 0)
(-3.55271e-14 0 0)
(-3.40027e-22 0 0)
(2.84217e-14 0 0)
(2.13163e-14 0 0)
(2.13163e-14 0 0)
(1.42109e-14 0 0)
(3.76287e-22 0 0)
(-4.26326e-14 0 0)
(1.42109e-14 0 0)
(2.84217e-14 0 0)
(-4.55822e-22 0 0)
(4.9738e-14 0 0)
(-2.13163e-14 0 0)
(-6.39488e-14 0 0)
(6.39488e-14 0 0)
(2.13163e-14 0 0)
(-2.13163e-14 0 0)
(2.84217e-14 0 0)
(-4.26326e-14 0 0)
(-5.68434e-14 0 0)
(-2.76317e-21 0 0)
(3.55271e-14 0 0)
(-1.42109e-14 0 0)
(1.42109e-14 0 0)
(2.84217e-14 0 0)
(-3.55271e-14 0 0)
(1.42109e-14 0 0)
(2.13163e-14 0 0)
(-1.42109e-14 0 0)
(1.42109e-14 0 0)
(-1.84517e-21 0 0)
(-6.39488e-14 0 0)
(-2.13163e-14 0 0)
(1.42109e-14 0 0)
(-7.10543e-14 0 0)
(2.00709e-21 0 0)
(7.10543e-14 0 0)
(2.13163e-14 0 0)
(-4.26326e-14 0 0)
(-7.10543e-15 0 0)
(2.84217e-14 0 0)
(-4.26326e-14 0 0)
(-7.10543e-15 0 0)
(6.39488e-14 0 0)
(2.13163e-14 0 0)
(-7.10543e-15 0 0)
(2.13163e-14 0 0)
(1.42109e-14 0 0)
(-3.55271e-14 0 0)
(-2.84217e-14 0 0)
(3.55271e-14 0 0)
(3.55271e-14 0 0)
(5.72284e-22 0 0)
(-9.23706e-14 0 0)
(-2.84217e-14 0 0)
(4.9738e-14 0 0)
(-7.10543e-15 0 0)
(-7.10543e-15 0 0)
(-2.13163e-14 0 0)
(2.13163e-14 0 0)
(9.23706e-14 0 0)
(-3.55271e-14 0 0)
(-7.81597e-14 0 0)
(6.39488e-14 0 0)
(3.69273e-23 0 0)
(-5.68434e-14 0 0)
(7.10543e-15 0 0)
(1.42109e-14 0 0)
(7.10543e-15 0 0)
(2.99392e-21 0 0)
(4.9738e-14 0 0)
(-2.84217e-14 0 0)
(-9.9476e-14 0 0)
(-7.10543e-15 0 0)
(1.42109e-14 0 0)
(-7.10543e-15 0 0)
(-3.55271e-14 0 0)
(-7.10543e-15 0 0)
(1.42109e-14 0 0)
(1.42109e-14 0 0)
(2.13163e-14 0 0)
(7.10543e-15 0 0)
(7.10543e-15 0 0)
(1.42109e-14 0 0)
(7.10543e-15 0 0)
(-1.42109e-14 0 0)
(-1.42109e-14 0 0)
(1.42109e-14 0 0)
(5.68434e-14 0 0)
(-2.13163e-14 0 0)
(-7.81597e-14 0 0)
(2.13163e-14 0 0)
(4.26326e-14 0 0)
(-2.13163e-14 0 0)
(-7.81597e-14 0 0)
(-2.13163e-14 0 0)
(5.68434e-14 0 0)
(-2.84217e-14 0 0)
(-7.10543e-15 0 0)
(7.81597e-14 0 0)
(-4.26326e-14 0 0)
(-3.55271e-14 0 0)
(9.23706e-14 0 0)
(4.9738e-14 0 0)
(-2.13163e-14 0 0)
(-2.84217e-14 0 0)
(-2.95131e-21 0 0)
(7.10543e-15 0 0)
(-1.42109e-14 0 0)
(-2.13163e-14 0 0)
(-1.42109e-14 0 0)
(2.81881e-22 0 0)
(7.10543e-15 0 0)
(1.42109e-14 0 0)
(7.10543e-15 0 0)
(7.10543e-15 0 0)
(2.13163e-14 0 0)
(-1.42109e-14 0 0)
(-2.13163e-14 0 0)
(-9.81152e-22 0 0)
(-7.10543e-15 0 0)
(1.42109e-14 0 0)
(7.10543e-15 0 0)
(2.13163e-14 0 0)
(-2.84217e-14 0 0)
(-2.84217e-14 0 0)
(1.42109e-14 0 0)
(-7.10543e-14 0 0)
(2.13163e-14 0 0)
(4.26326e-14 0 0)
(-3.55271e-14 0 0)
(2.84217e-14 0 0)
(2.84217e-14 0 0)
(-1.42109e-14 0 0)
(2.84217e-14 0 0)
(2.84217e-14 0 0)
(2.84217e-14 0 0)
(7.10543e-15 0 0)
(-4.9738e-14 0 0)
(-2.13163e-14 0 0)
(2.84217e-14 0 0)
(2.13163e-14 0 0)
(-7.10543e-15 0 0)
(7.10542e-15 0 0)
(1.42109e-14 0 0)
(-7.10543e-15 0 0)
(-2.13163e-14 0 0)
(-1.42109e-14 0 0)
(1.75645e-21 0 0)
(-2.84217e-14 0 0)
(-2.84217e-14 0 0)
(3.55271e-14 0 0)
(4.9738e-14 0 0)
(8.52651e-14 0 0)
(4.26326e-14 0 0)
(-7.81597e-14 0 0)
(-4.9738e-14 0 0)
(2.13163e-14 0 0)
(2.13163e-14 0 0)
(2.13163e-14 0 0)
(7.10543e-15 0 0)
(2.13163e-14 0 0)
(7.10543e-15 0 0)
(-3.55271e-14 0 0)
(-1.83314e-21 0 0)
(2.13163e-14 0 0)
(2.84217e-14 0 0)
(1.45051e-21 0 0)
(-6.39488e-14 0 0)
(-4.9738e-14 0 0)
(-7.10543e-15 0 0)
(-6.39488e-14 0 0)
(7.10543e-15 0 0)
(7.81597e-14 0 0)
(2.84217e-14 0 0)
(7.10543e-15 0 0)
(-7.10543e-15 0 0)
(3.55271e-14 0 0)
(7.10543e-15 0 0)
(-2.13163e-14 0 0)
(2.13163e-14 0 0)
(-7.10543e-15 0 0)
(-2.13163e-14 0 0)
(9.23706e-14 0 0)
(2.13163e-14 0 0)
(-4.9738e-14 0 0)
(-7.10543e-15 0 0)
(-2.84217e-14 0 0)
(4.9738e-14 0 0)
(3.55271e-14 0 0)
(-1.42109e-14 0 0)
(-5.68434e-14 0 0)
(-7.10543e-14 0 0)
(7.10543e-15 0 0)
(1.06581e-13 0 0)
(2.84217e-14 0 0)
(-9.23706e-14 0 0)
(-3.55271e-14 0 0)
(2.13163e-14 0 0)
(-1.42109e-14 0 0)
(-3.55271e-14 0 0)
(7.10543e-14 0 0)
(4.26326e-14 0 0)
(-4.26326e-14 0 0)
(-1.42109e-14 0 0)
(2.11503e-21 0 0)
(-7.10543e-15 0 0)
(-2.84217e-14 0 0)
(-1.42109e-14 0 0)
(1.42109e-14 0 0)
(1.42109e-14 0 0)
(7.46893e-22 0 0)
(7.41211e-22 0 0)
(2.13163e-14 0 0)
(-1.42109e-14 0 0)
(-2.84217e-14 0 0)
(2.35714e-21 0 0)
(-7.10543e-15 0 0)
(1.42109e-14 0 0)
(2.13163e-14 0 0)
(-2.13163e-14 0 0)
(2.84217e-14 0 0)
(-2.8036e-21 0 0)
(-4.9738e-14 0 0)
(7.85413e-24 0 0)
(-2.13163e-14 0 0)
(2.13163e-14 0 0)
(9.9476e-14 0 0)
(7.10543e-15 0 0)
(-4.9738e-14 0 0)
(-2.13163e-14 0 0)
(-2.13163e-14 0 0)
(-2.44287e-22 0 0)
(7.10543e-14 0 0)
(-2.84217e-14 0 0)
(-4.9738e-14 0 0)
(4.9738e-14 0 0)
(2.84217e-14 0 0)
(-7.10543e-15 0 0)
(-5.68434e-14 0 0)
(7.10543e-15 0 0)
(-2.13163e-14 0 0)
(-3.55271e-14 0 0)
(4.9738e-14 0 0)
(4.26326e-14 0 0)
(2.13163e-14 0 0)
(-1.15158e-21 0 0)
(-1.49094e-21 0 0)
(-1.42109e-14 0 0)
(-3.55271e-14 0 0)
(-3.55271e-14 0 0)
(1.42109e-14 0 0)
(1.42109e-14 0 0)
(-2.84217e-14 0 0)
(-4.26326e-14 0 0)
(-6.39488e-14 0 0)
(5.68434e-14 0 0)
(4.9738e-14 0 0)
(-7.10543e-15 0 0)
(7.10543e-15 0 0)
(-3.55271e-14 0 0)
(-1.42109e-14 0 0)
(7.10543e-15 0 0)
(7.10543e-15 0 0)
(2.13163e-14 0 0)
(-7.10543e-15 0 0)
(-7.10543e-15 0 0)
(2.13163e-14 0 0)
(-2.13163e-14 0 0)
(1.42109e-14 0 0)
(7.10543e-15 0 0)
(1.42109e-14 0 0)
(1.71033e-21 0 0)
(-8.52651e-14 0 0)
(-7.10543e-15 0 0)
(5.68434e-14 0 0)
(7.10543e-14 0 0)
(-7.10543e-15 0 0)
(-4.26326e-14 0 0)
(-1.42109e-14 0 0)
(2.84217e-14 0 0)
(2.13163e-14 0 0)
(1.88143e-22 0 0)
(-3.86144e-22 0 0)
(-7.81597e-14 0 0)
(3.55271e-14 0 0)
(5.68434e-14 0 0)
(2.2761e-21 0 0)
(-2.13163e-14 0 0)
(-7.10543e-15 0 0)
(1.42109e-14 0 0)
(-1.42109e-14 0 0)
(2.13163e-14 0 0)
(1.42109e-14 0 0)
(7.10543e-15 0 0)
(-4.26326e-14 0 0)
(2.84217e-14 0 0)
(6.39488e-14 0 0)
(-2.84217e-14 0 0)
(-1.42109e-14 0 0)
(1.13454e-21 0 0)
(-1.42109e-14 0 0)
(-2.84217e-14 0 0)
(-2.13163e-14 0 0)
(2.13163e-14 0 0)
(1.69329e-21 0 0)
(-7.10543e-15 0 0)
(7.10543e-15 0 0)
(-4.26326e-14 0 0)
(-3.55271e-14 0 0)
(3.55271e-14 0 0)
(-1.42109e-14 0 0)
(-7.81597e-14 0 0)
(7.10543e-14 0 0)
(5.68434e-14 0 0)
(-7.10543e-14 0 0)
(7.10543e-15 0 0)
(-7.10543e-15 0 0)
(1.68326e-21 0 0)
(1.06581e-13 0 0)
(-1.42109e-14 0 0)
(-2.13163e-14 0 0)
(7.10543e-15 0 0)
(-6.39488e-14 0 0)
(7.10543e-15 0 0)
(7.44052e-22 0 0)
(-1.42109e-14 0 0)
(2.84217e-14 0 0)
(2.84217e-14 0 0)
(4.26326e-14 0 0)
(-7.10543e-15 0 0)
(-4.26326e-14 0 0)
(-7.10543e-15 0 0)
(7.10543e-15 0 0)
(-3.55271e-14 0 0)
(-3.69536e-21 0 0)
(7.10543e-15 0 0)
(-2.13163e-14 0 0)
(1.42109e-14 0 0)
(-1.42109e-14 0 0)
(-7.10543e-15 0 0)
(2.13163e-14 0 0)
(2.84217e-14 0 0)
(-6.39488e-14 0 0)
(1.42109e-14 0 0)
(5.68434e-14 0 0)
(-2.84217e-14 0 0)
(2.13163e-14 0 0)
(2.13163e-14 0 0)
(-2.84217e-14 0 0)
(-1.42109e-14 0 0)
(2.84217e-14 0 0)
(2.13163e-14 0 0)
(1.42109e-14 0 0)
(-1.42109e-14 0 0)
(1.42109e-14 0 0)
(7.10543e-15 0 0)
(-4.26326e-14 0 0)
(-3.55271e-14 0 0)
(-1.42109e-14 0 0)
(2.84217e-14 0 0)
(2.13163e-14 0 0)
(-3.55271e-14 0 0)
(-2.84217e-14 0 0)
(1.42109e-14 0 0)
(1.42109e-14 0 0)
(-2.55447e-21 0 0)
(-2.13163e-14 0 0)
(-2.47795e-22 0 0)
(2.84217e-14 0 0)
(-7.10543e-15 0 0)
(-3.55271e-14 0 0)
(-1.42109e-14 0 0)
(-1.6826e-22 0 0)
(2.13163e-14 0 0)
(5.68434e-14 0 0)
(-2.13163e-14 0 0)
(-1.42109e-14 0 0)
(2.13163e-14 0 0)
(3.55271e-14 0 0)
(-1.33538e-21 0 0)
(-6.39488e-14 0 0)
(-7.10543e-15 0 0)
(3.55271e-14 0 0)
(2.13163e-14 0 0)
(2.13163e-14 0 0)
(-7.10543e-15 0 0)
(-2.84217e-14 0 0)
(-4.9738e-14 0 0)
(-2.13163e-14 0 0)
(7.10543e-15 0 0)
(-1.42109e-14 0 0)
(-7.10543e-15 0 0)
(2.13163e-14 0 0)
(7.10543e-15 0 0)
(7.10543e-15 0 0)
(2.84217e-14 0 0)
(-4.9738e-14 0 0)
(-7.10543e-14 0 0)
(2.13163e-14 0 0)
(3.55271e-14 0 0)
(-2.13163e-14 0 0)
(4.9738e-14 0 0)
(1.42109e-14 0 0)
(2.13163e-14 0 0)
(6.39489e-14 0 0)
(5.68435e-14 0 0)
(6.39489e-14 0 0)
(1.7053e-13 0 0)
(2.70006e-13 0 0)
(2.4869e-13 0 0)
(5.32908e-13 0 0)
(9.0239e-13 0 0)
(1.32161e-12 0 0)
(2.06768e-12 0 0)
(3.20455e-12 0 0)
(4.84591e-12 0 0)
(7.24044e-12 0 0)
(1.09779e-11 0 0)
(1.66978e-11 0 0)
(2.50822e-11 0 0)
(3.73391e-11 0 0)
(5.56213e-11 0 0)
(8.25936e-11 0 0)
(1.21972e-10 0 0)
(1.79391e-10 0 0)
(2.62709e-10 0 0)
(3.83296e-10 0 0)
(5.56796e-10 0 0)
(8.05252e-10 0 0)
(1.15962e-09 0 0)
(1.66278e-09 0 0)
(2.37366e-09 0 0)
(3.37355e-09 0 0)
(4.77347e-09 0 0)
(6.72386e-09 0 0)
(9.42823e-09 0 0)
(1.31599e-08 0 0)
(1.82839e-08 0 0)
(2.52848e-08 0 0)
(3.48021e-08 0 0)
(4.76745e-08 0 0)
(6.49954e-08 0 0)
(8.81812e-08 0 0)
(1.19054e-07 0 0)
(1.59943e-07 0 0)
(2.13804e-07 0 0)
(2.84364e-07 0 0)
(3.76288e-07 0 0)
(4.95365e-07 0 0)
(6.48735e-07 0 0)
(8.45123e-07 0 0)
(1.09511e-06 0 0)
(1.41141e-06 0 0)
(1.80916e-06 0 0)
(2.30622e-06 0 0)
(2.92347e-06 0 0)
(3.68499e-06 0 0)
(4.61831e-06 0 0)
(5.7545e-06 0 0)
(7.12813e-06 0 0)
(8.77716e-06 0 0)
(1.07425e-05 0 0)
(1.30677e-05 0 0)
(1.57978e-05 0 0)
(1.89783e-05 0 0)
(2.26541e-05 0 0)
(2.68674e-05 0 0)
(3.16562e-05 0 0)
(3.70514e-05 0 0)
(4.30751e-05 0 0)
(4.97378e-05 0 0)
(5.70358e-05 0 0)
(6.49493e-05 0 0)
(7.34399e-05 0 0)
(8.24492e-05 0 0)
(9.1898e-05 0 0)
(0.000101686 0 0)
(0.000111693 0 0)
(0.000121778 0 0)
(0.000131788 0 0)
(0.000141553 0 0)
(0.000150898 0 0)
(0.000159644 0 0)
(0.000167615 0 0)
(0.000174642 0 0)
(0.000180573 0 0)
(0.000185272 0 0)
(0.00018863 0 0)
(0.000190562 0 0)
(0.000191017 0 0)
(0.000189972 0 0)
(0.00018744 0 0)
(0.000183461 0 0)
(0.000178106 0 0)
(0.00017147 0 0)
(0.000163673 0 0)
(0.000154848 0 0)
(0.000145144 0 0)
(0.000134718 0 0)
(0.00012373 0 0)
(0.00011234 0 0)
(0.000100703 0 0)
(8.89662e-05 0 0)
(7.72677e-05 0 0)
(6.5732e-05 0 0)
(5.44701e-05 0 0)
(4.35782e-05 0 0)
(3.31373e-05 0 0)
(2.32134e-05 0 0)
(1.38576e-05 0 0)
(5.10732e-06 0 0)
(-3.01297e-06 0 0)
(-1.04905e-05 0 0)
(-1.73231e-05 0 0)
(-2.35176e-05 0 0)
(-2.90887e-05 0 0)
(-3.40576e-05 0 0)
(-3.84507e-05 0 0)
(-4.22984e-05 0 0)
(-4.56343e-05 0 0)
(-4.84937e-05 0 0)
(-5.09135e-05 0 0)
(-5.29306e-05 0 0)
(-5.45817e-05 0 0)
(-5.59028e-05 0 0)
(-5.69283e-05 0 0)
(-5.76913e-05 0 0)
(-5.82227e-05 0 0)
(-5.85514e-05 0 0)
(-5.8704e-05 0 0)
(-5.8705e-05 0 0)
(-5.85766e-05 0 0)
(-5.83386e-05 0 0)
(-5.80088e-05 0 0)
(-5.76029e-05 0 0)
(-5.71348e-05 0 0)
(-5.66165e-05 0 0)
(-5.60584e-05 0 0)
(-5.54696e-05 0 0)
(-5.48576e-05 0 0)
(-5.42289e-05 0 0)
(-5.35891e-05 0 0)
(-5.29426e-05 0 0)
(-5.22932e-05 0 0)
(-5.16441e-05 0 0)
(-5.09977e-05 0 0)
(-5.03562e-05 0 0)
(-4.97211e-05 0 0)
(-4.90939e-05 0 0)
(-4.84756e-05 0 0)
(-4.78669e-05 0 0)
(-4.72684e-05 0 0)
(-4.66808e-05 0 0)
(-4.61041e-05 0 0)
(-4.55387e-05 0 0)
(-4.49847e-05 0 0)
(-4.44422e-05 0 0)
(-4.3911e-05 0 0)
(-4.33913e-05 0 0)
(-4.28829e-05 0 0)
(-4.23857e-05 0 0)
(-4.18996e-05 0 0)
(-4.14243e-05 0 0)
(-4.09597e-05 0 0)
(-4.05057e-05 0 0)
(-4.00619e-05 0 0)
(-3.96283e-05 0 0)
(-3.92046e-05 0 0)
(-3.87904e-05 0 0)
(-3.83858e-05 0 0)
(-3.79902e-05 0 0)
(-3.76036e-05 0 0)
(-3.72257e-05 0 0)
(-3.68561e-05 0 0)
(-3.64946e-05 0 0)
(-3.6141e-05 0 0)
(-3.57947e-05 0 0)
(-3.54557e-05 0 0)
(-3.51234e-05 0 0)
(-3.47975e-05 0 0)
(-3.44776e-05 0 0)
(-3.41634e-05 0 0)
(-3.38545e-05 0 0)
(-3.35504e-05 0 0)
(-3.32507e-05 0 0)
(-3.2955e-05 0 0)
(-3.2663e-05 0 0)
(-3.23742e-05 0 0)
(-3.20883e-05 0 0)
(-3.18049e-05 0 0)
(-3.15238e-05 0 0)
(-3.12446e-05 0 0)
(-3.09672e-05 0 0)
(-3.06912e-05 0 0)
(-3.04166e-05 0 0)
(-3.01433e-05 0 0)
(-2.9871e-05 0 0)
(-2.95998e-05 0 0)
(-2.93297e-05 0 0)
(-2.90607e-05 0 0)
(-2.87928e-05 0 0)
(-2.85261e-05 0 0)
(-2.82607e-05 0 0)
(-2.79967e-05 0 0)
(-2.77342e-05 0 0)
(-2.74734e-05 0 0)
(-2.72143e-05 0 0)
(-2.69571e-05 0 0)
(-2.6702e-05 0 0)
(-2.64491e-05 0 0)
(-2.61984e-05 0 0)
(-2.59502e-05 0 0)
(-2.57045e-05 0 0)
(-2.54615e-05 0 0)
(-2.52212e-05 0 0)
(-2.49838e-05 0 0)
(-2.47493e-05 0 0)
(-2.45178e-05 0 0)
(-2.42893e-05 0 0)
(-2.40639e-05 0 0)
(-2.38417e-05 0 0)
(-2.36227e-05 0 0)
(-2.34068e-05 0 0)
(-2.31941e-05 0 0)
(-2.29845e-05 0 0)
(-2.2778e-05 0 0)
(-2.25745e-05 0 0)
(-2.23739e-05 0 0)
(-2.21763e-05 0 0)
(-2.19813e-05 0 0)
(-2.17891e-05 0 0)
(-2.15994e-05 0 0)
(-2.14122e-05 0 0)
(-2.12274e-05 0 0)
(-2.10448e-05 0 0)
(-2.08644e-05 0 0)
(-2.0686e-05 0 0)
(-2.05094e-05 0 0)
(-2.03346e-05 0 0)
(-2.01614e-05 0 0)
(-1.99897e-05 0 0)
(-1.98194e-05 0 0)
(-1.96504e-05 0 0)
(-1.94826e-05 0 0)
(-1.9316e-05 0 0)
(-1.91504e-05 0 0)
(-1.8986e-05 0 0)
(-1.88228e-05 0 0)
(-1.86606e-05 0 0)
(-1.84997e-05 0 0)
(-1.83399e-05 0 0)
(-1.81813e-05 0 0)
(-1.8024e-05 0 0)
(-1.78679e-05 0 0)
(-1.77131e-05 0 0)
(-1.75595e-05 0 0)
(-1.74072e-05 0 0)
(-1.7256e-05 0 0)
(-1.71062e-05 0 0)
(-1.69575e-05 0 0)
(-1.68102e-05 0 0)
(-1.66639e-05 0 0)
(-1.65195e-05 0 0)
(-1.63754e-05 0 0)
(-1.62343e-05 0 0)
(-1.60916e-05 0 0)
(-1.59553e-05 0 0)
(-1.58124e-05 0 0)
(-1.56836e-05 0 0)
(-1.5537e-05 0 0)
(-1.54211e-05 0 0)
(-1.52647e-05 0 0)
(-1.51676e-05 0 0)
(-1.49954e-05 0 0)
(-1.49184e-05 0 0)
(-1.47352e-05 0 0)
(-1.46608e-05 0 0)
(-1.45009e-05 0 0)
(-1.43743e-05 0 0)
(-1.43121e-05 0 0)
(-1.40479e-05 0 0)
(-1.41652e-05 0 0)
(-1.37143e-05 0 0)
(-1.40174e-05 0 0)
(-1.34859e-05 0 0)
(-1.38525e-05 0 0)
(-1.37827e-05 0 0)
(-1.49735e-05 0 0)
(-1.07463e-05 0 0)
(-1.15944e-05 0 0)
(-1.45808e-05 0 0)
(-1.34242e-05 0 0)
(-1.2403e-05 0 0)
(-1.26985e-05 0 0)
(-1.23075e-05 0 0)
(-1.21727e-05 0 0)
(-1.2346e-05 0 0)
(-1.2735e-05 0 0)
(-1.16394e-05 0 0)
(-1.28542e-05 0 0)
(-1.11814e-05 0 0)
(-1.35031e-05 0 0)
(-1.02477e-05 0 0)
(-1.39147e-05 0 0)
(-9.14106e-06 0 0)
(-1.50964e-05 0 0)
(-7.33955e-06 0 0)
(-1.61644e-05 0 0)
(-5.23976e-06 0 0)
(-6.30743e-06 0 0)
(-1.41098e-05 0 0)
(-1.42966e-06 0 0)
(-2.21521e-05 0 0)
(-9.69283e-06 0 0)
(-1.43337e-05 0 0)
(-7.51662e-06 0 0)
(-8.35024e-06 0 0)
(-6.85108e-05 0 0)
(5.0446e-05 0 0)
(-2.32549e-05 0 0)
(-6.03208e-06 0 0)
(-3.75404e-06 0 0)
(-1.10094e-05 0 0)
(-1.52597e-05 0 0)
(-5.31923e-06 0 0)
(-2.23316e-06 0 0)
(-1.5196e-05 0 0)
(-1.67255e-05 0 0)
(-2.00495e-06 0 0)
(-3.60266e-06 0 0)
(-1.42176e-05 0 0)
(-8.27103e-06 0 0)
(-7.61955e-06 0 0)
(-8.19224e-06 0 0)
(-8.56928e-06 0 0)
(-8.26905e-06 0 0)
(-7.73241e-06 0 0)
(-8.83308e-06 0 0)
(-8.35583e-06 0 0)
(-6.64848e-06 0 0)
(-8.50938e-06 0 0)
(-8.24723e-06 0 0)
(-5.95843e-06 0 0)
(-8.03168e-06 0 0)
(-8.33123e-06 0 0)
(-6.33112e-06 0 0)
(-7.64533e-06 0 0)
(-7.88321e-06 0 0)
(-6.85856e-06 0 0)
(-7.75689e-06 0 0)
(-8.09653e-06 0 0)
(-7.73784e-06 0 0)
(-1.32723e-05 0 0)
(-1.66413e-05 0 0)
(-2.96706e-05 0 0)
(6.82514e-06 0 0)
(-3.41606e-06 0 0)
(1.78974e-06 0 0)
(-3.20228e-06 0 0)
(1.19768e-06 0 0)
(3.64322e-06 0 0)
(-9.11633e-07 0 0)
(8.18263e-06 0 0)
(-6.36268e-07 0 0)
(-1.46926e-06 0 0)
(6.33398e-06 0 0)
(-1.90226e-06 0 0)
(6.99648e-06 0 0)
(6.79648e-06 0 0)
(3.87474e-06 0 0)
(2.73915e-06 0 0)
(3.96761e-06 0 0)
(3.70269e-06 0 0)
(6.18957e-06 0 0)
(2.45602e-06 0 0)
(6.08184e-06 0 0)
(6.14887e-06 0 0)
(4.8299e-06 0 0)
(9.70672e-06 0 0)
(8.01257e-06 0 0)
(2.44086e-05 0 0)
(-1.17931e-05 0 0)
(1.01159e-05 0 0)
(5.02767e-06 0 0)
(4.99392e-06 0 0)
(1.17663e-05 0 0)
(9.84096e-06 0 0)
(7.26779e-06 0 0)
(1.06263e-05 0 0)
(1.23864e-05 0 0)
(9.17808e-06 0 0)
(1.15434e-05 0 0)
(1.04941e-05 0 0)
(1.11591e-05 0 0)
(1.14335e-05 0 0)
(1.42212e-05 0 0)
(1.52673e-05 0 0)
(1.62651e-05 0 0)
(1.62618e-05 0 0)
(1.39098e-05 0 0)
(1.31837e-05 0 0)
(1.09436e-05 0 0)
(1.35854e-05 0 0)
(1.57589e-05 0 0)
(2.04771e-05 0 0)
(2.42536e-05 0 0)
(2.4885e-05 0 0)
(2.47338e-05 0 0)
(1.97911e-05 0 0)
(1.71775e-05 0 0)
(1.36053e-05 0 0)
(1.31828e-05 0 0)
(1.64251e-05 0 0)
(1.94002e-05 0 0)
(2.63299e-05 0 0)
(2.97964e-05 0 0)
(3.17177e-05 0 0)
(3.43169e-05 0 0)
(3.16764e-05 0 0)
(3.48463e-05 0 0)
(2.98826e-05 0 0)
(2.47396e-05 0 0)
(2.64574e-05 0 0)
(2.06079e-05 0 0)
(2.16857e-05 0 0)
(2.0257e-05 0 0)
(2.56185e-05 0 0)
(2.9025e-05 0 0)
(3.51967e-05 0 0)
(3.06225e-05 0 0)
(3.34813e-05 0 0)
(4.27657e-05 0 0)
(-0.000111172 0 0)
(-7.34941e-05 0 0)
(-0.000846101 0 0)
(0.000630644 0 0)
(0.000842966 0 0)
(0.00832599 0 0)
(-0.001118 0 0)
(-0.000865273 0 0)
(0.00137305 0 0)
(-0.000960676 0 0)
(0.000191977 0 0)
(-2.32657e-05 0 0)
(9.05315e-05 0 0)
(2.22087e-05 0 0)
(0.00010261 0 0)
(6.71813e-05 0 0)
(6.79827e-05 0 0)
(3.17474e-05 0 0)
(0.000181971 0 0)
(-5.23579e-05 0 0)
(-9.1098e-05 0 0)
(-0.000219224 0 0)
(0.000534992 0 0)
)
;

boundaryField
{
    sideLeft
    {
        type            symmetryPlane;
    }
    sideRight
    {
        type            calculated;
        value           uniform (-0.434957 0 0);
    }
    topbottom
    {
        type            empty;
    }
    frontback
    {
        type            empty;
    }
}


// ************************************************************************* //
