/*--------------------------------*- C++ -*----------------------------------*\
| =========                 |                                                 |
| \\      /  F ield         | OpenFOAM: The Open Source CFD Toolbox           |
|  \\    /   O peration     | Version:  2.4.0                                 |
|   \\  /    A nd           | Web:      www.OpenFOAM.org                      |
|    \\/     M anipulation  |                                                 |
\*---------------------------------------------------------------------------*/
FoamFile
{
    version     2.0;
    format      ascii;
    class       surfaceScalarField;
    location    "0.01";
    object      phi;
}
// * * * * * * * * * * * * * * * * * * * * * * * * * * * * * * * * * * * * * //

dimensions      [0 3 -1 0 0 0 0];

internalField   nonuniform List<scalar> 
999
(
-4.38709e-13
-4.68958e-13
-3.24896e-13
-5.62046e-13
-7.70342e-13
1.41043e-13
-2.98428e-13
-1.20441e-12
-8.56626e-13
-5.22366e-13
-2.26501e-12
-2.42141e-12
-5.04668e-13
9.46294e-14
-2.55179e-13
1.24585e-12
7.9942e-13
5.93155e-13
-7.10542e-14
2.65653e-13
-2.04647e-13
-7.10543e-13
-2.98428e-13
8.28977e-13
5.26046e-13
7.91633e-13
1.01021e-12
3.14273e-13
1.41057e-13
-7.13016e-13
1.21797e-14
7.10402e-13
1.1279e-12
9.47293e-13
6.07609e-13
-5.29347e-13
-2.81977e-13
-5.25802e-13
4.67277e-13
2.59779e-13
-2.55795e-13
-7.68818e-14
-7.4805e-13
-7.44444e-13
-6.41833e-13
-1.67614e-12
-7.4507e-13
-6.5034e-13
-1.06239e-12
-8.17259e-13
-1.51924e-12
-1.07911e-12
-1.07131e-12
-3.52028e-13
-1.10082e-13
-2.84649e-13
2.54218e-14
5.93782e-13
1.42109e-13
1.32832e-12
6.42238e-13
1.56088e-13
1.09111e-12
1.77573e-12
3.71392e-12
4.87242e-12
4.46617e-12
4.55526e-12
2.90625e-12
1.75937e-12
5.54223e-13
2.62006e-13
7.17681e-13
7.23271e-13
5.79911e-13
8.35052e-13
1.32343e-12
1.00644e-12
1.38721e-12
8.47743e-13
2.82204e-13
-1.34008e-13
-1.18568e-12
-1.21773e-12
-2.11355e-12
-2.86937e-12
-2.52597e-12
-3.31253e-12
-4.30489e-12
-3.59147e-12
-2.61815e-12
-1.95681e-12
-1.88533e-12
-2.0918e-12
-6.88966e-13
-1.97133e-13
4.19183e-13
7.1936e-13
8.68242e-13
1.11921e-12
4.54485e-13
5.65755e-13
8.52651e-14
-2.84217e-14
-7.61328e-13
7.54277e-13
5.54223e-13
-7.63147e-13
-9.12963e-13
-1.67564e-13
7.98632e-14
8.52652e-14
-8.88325e-13
-7.15311e-13
-1.05512e-12
8.17963e-14
4.61791e-13
-4.26326e-14
1.2073e-12
1.60472e-12
8.21617e-13
6.9583e-13
3.00193e-13
-9.31841e-13
-1.22996e-12
-5.13026e-13
-5.77624e-13
-2.35263e-13
-1.05279e-12
-1.68241e-12
-1.64719e-12
-1.18005e-12
1.12424e-12
5.29724e-13
2.64739e-13
8.53006e-13
1.22541e-12
7.50721e-13
2.02303e-12
1.93424e-12
2.03224e-12
1.18817e-12
8.68351e-13
1.03363e-13
5.70146e-13
-4.37028e-13
-5.10208e-13
-1.29074e-12
-3.69482e-13
-4.25982e-13
-5.14403e-13
2.55795e-13
4.8215e-13
9.09495e-13
-6.46996e-13
-1.19096e-12
-1.88179e-13
-3.68681e-13
-2.87987e-13
-2.94474e-13
3.53621e-13
1.64989e-13
-4.73005e-13
-7.86604e-13
-9.75237e-13
-4.69366e-13
1.59213e-12
4.29444e-13
8.80429e-13
5.39867e-13
-1.41255e-13
5.68434e-14
-1.23516e-12
-5.79003e-13
-2.292e-12
-1.09209e-12
-1.04812e-12
-3.12639e-13
-1.18374e-12
-1.42926e-12
-1.23046e-12
-8.91736e-13
-7.87049e-13
-1.5702e-12
-1.56659e-12
-6.61425e-13
1.29743e-12
2.21589e-12
3.2005e-12
2.93977e-12
1.22809e-12
-3.2096e-13
-9.27531e-13
-8.08171e-13
1.90091e-14
-8.52651e-14
2.13163e-13
-1.19444e-12
-1.91005e-12
-2.32671e-12
-7.70167e-13
-1.9567e-13
3.01918e-13
4.83009e-13
-8.09137e-13
-1.32874e-12
-1.38299e-12
-5.5611e-13
5.50825e-14
4.95357e-14
1.42109e-13
1.37776e-12
2.18956e-12
2.08165e-12
2.63022e-12
2.58444e-12
2.25933e-12
9.75151e-13
1.40915e-12
1.98022e-12
2.4979e-12
9.42265e-13
7.79109e-14
-5.67588e-13
-1.64806e-13
-5.54907e-13
-1.56276e-13
-2.84219e-14
3.2685e-13
5.03347e-13
3.37996e-13
-4.87685e-13
-9.59438e-13
-1.66422e-12
-6.17284e-13
-9.44429e-13
-3.75902e-13
4.26325e-14
1.27898e-13
-5.68434e-14
-1.01632e-12
-2.658e-12
-2.30126e-12
-1.08737e-12
-3.55271e-13
-1.52604e-12
-1.24441e-12
-1.87607e-12
-1.90187e-12
-5.79504e-13
-1.43378e-12
-9.95353e-13
-3.55691e-13
-1.09964e-12
-3.59499e-13
2.61905e-13
1.15625e-12
-2.83429e-13
-4.76977e-13
-5.96856e-13
-3.31151e-13
-8.32506e-13
-8.62577e-13
-8.15658e-13
-5.98853e-14
-1.08056e-12
-2.05041e-12
-2.11696e-12
-2.86974e-13
1.44071e-13
-3.0441e-13
3.91442e-13
8.64346e-13
8.77792e-13
1.43295e-12
2.44842e-12
1.48255e-12
1.358e-12
8.40474e-14
-1.13687e-13
-6.96198e-13
-1.98952e-13
-5.96856e-13
2.10935e-13
6.9451e-13
1.63625e-12
1.29148e-12
1.46459e-12
5.85655e-13
-7.10543e-14
-1.28133e-12
-4.79903e-13
2.56058e-13
-5.5525e-13
-1.42109e-13
2.55796e-13
7.67214e-13
1.19656e-12
5.45456e-13
1.45166e-12
1.12017e-12
-1.56319e-13
1.42108e-13
-6.78366e-13
2.32596e-12
2.14618e-12
1.88407e-12
2.73947e-12
2.64599e-12
1.53554e-12
1.64349e-12
1.24911e-12
1.1569e-12
6.436e-13
-9.94402e-13
-2.55912e-12
-1.78026e-12
-2.06339e-13
2.72025e-13
5.87771e-14
-1.39704e-12
-1.93736e-12
-2.18991e-12
-2.26107e-12
-4.81983e-13
3.71582e-13
5.29605e-13
9.76066e-13
-2.41584e-13
-6.47407e-14
-2.20297e-13
-1.25429e-12
-2.11328e-13
-8.52651e-14
1.2739e-12
1.24413e-12
4.26326e-13
1.19445e-12
6.88032e-13
8.80739e-13
4.36186e-13
-3.98147e-13
-1.52599e-12
1.39089e-13
-2.2837e-13
-3.58656e-14
7.29122e-13
1.19077e-12
7.18569e-13
-4.92829e-13
-1.03775e-12
-7.38964e-13
-1.54168e-12
-1.88368e-13
-2.3772e-13
-1.17116e-13
4.61295e-13
5.33445e-13
3.09207e-13
1.75193e-13
2.98428e-13
5.2292e-13
-1.08212e-13
7.42311e-13
1.0246e-12
2.40898e-12
2.20613e-12
1.34248e-12
1.02681e-12
1.09635e-12
1.84741e-13
6.76087e-13
6.56739e-13
8.59276e-13
5.07201e-13
-9.4597e-14
-1.90281e-12
-6.73364e-13
-7.67503e-13
-4.13682e-13
-3.16655e-13
-5.66134e-13
-1.38525e-12
-1.2702e-12
-1.49535e-12
-3.33276e-14
7.10542e-14
6.65532e-13
1.53051e-12
2.37464e-12
1.49721e-12
1.13206e-12
1.06802e-12
1.19316e-12
8.79569e-13
2.4485e-13
-5.83036e-13
9.9476e-14
1.14808e-12
2.00003e-12
1.24874e-12
2.84217e-13
-1.59371e-12
-2.06623e-12
-3.412e-12
-9.84768e-13
-3.38824e-13
-3.05862e-15
-1.02062e-12
-9.24321e-13
-1.15203e-12
-7.11076e-13
-1.69872e-12
-1.67272e-12
-1.99905e-12
-6.14595e-13
-8.01087e-13
-1.42107e-14
-7.10543e-14
7.22327e-13
7.91991e-13
-5.84282e-13
-5.97e-13
9.55448e-13
1.12991e-12
4.29734e-13
-4.95717e-13
-1.10585e-12
-2.40328e-12
-2.54756e-12
-2.16565e-12
-1.88044e-12
-8.91662e-13
-4.59492e-13
-8.21939e-13
-7.45578e-13
2.70006e-13
3.41061e-13
1.58015e-12
8.42606e-13
5.08646e-13
-8.40166e-13
-4.9738e-13
-1.7595e-12
-1.76241e-12
-1.22606e-12
-1.04654e-12
-2.70328e-13
4.96607e-13
4.8199e-13
-3.43703e-13
-2.28356e-13
3.12639e-13
3.54115e-13
-5.35142e-14
-1.84741e-13
-1.31514e-13
4.27027e-13
5.66764e-13
1.12632e-12
1.17947e-12
9.50863e-13
9.51782e-14
-1.20045e-13
-9.0752e-13
-1.36658e-12
-2.03848e-12
-1.71545e-12
-1.3269e-12
-1.30721e-12
-1.61811e-12
-4.74632e-13
5.83498e-13
1.30081e-12
1.52628e-12
4.35869e-13
9.03355e-13
1.03453e-12
5.40255e-13
4.41726e-13
4.98337e-13
8.18529e-13
1.52063e-12
9.54839e-13
-1.42109e-13
-1.42109e-14
-4.00371e-13
-5.60518e-13
-2.03865e-12
-9.9476e-14
1.16911e-12
1.3321e-12
8.89051e-13
4.29568e-13
-5.14763e-13
-1.17295e-12
-1.64766e-12
-1.57042e-12
-2.5625e-12
-1.15196e-12
-9.3295e-13
-1.21336e-12
3.61593e-13
7.38141e-13
6.32609e-13
6.01071e-13
-1.7573e-12
-7.52492e-13
-7.36606e-13
-4.28097e-13
-1.26496e-13
-5.78381e-14
-7.1842e-13
-1.69883e-12
-1.21113e-12
4.12115e-13
9.16761e-13
-2.13163e-13
1.15048e-12
2.19799e-12
6.97749e-13
-1.38069e-13
-3.08794e-13
-4.9738e-13
1.98952e-13
1.26316e-12
2.44601e-12
2.08656e-12
1.94362e-12
1.06804e-12
1.02582e-12
3.4077e-13
3.60881e-13
-2.27374e-13
1.39416e-13
6.53894e-13
5.46869e-13
1.63755e-12
1.0671e-12
7.08981e-13
3.99238e-13
-4.24707e-13
-1.47659e-12
-7.40442e-13
-7.32497e-13
1.84741e-13
-9.43504e-13
-1.47519e-12
-1.40653e-12
1.98952e-13
-7.13026e-14
-4.94225e-13
-1.20008e-12
-2.41585e-13
-5.50835e-14
-9.84721e-13
-1.50843e-12
-6.3781e-13
-6.61714e-13
-5.77513e-13
-4.03898e-13
-1.44767e-13
-4.26325e-14
-4.91703e-13
-7.1054e-14
6.38401e-13
8.56605e-13
1.04579e-12
1.99437e-13
-2.49872e-13
-5.63699e-13
4.36393e-14
-5.77834e-13
-1.84741e-13
8.56983e-13
1.87226e-12
1.6985e-12
1.2976e-12
8.78675e-13
-6.06991e-13
-9.59685e-13
-3.08224e-13
-1.97459e-13
-2.35302e-13
-3.8331e-13
6.16888e-13
1.86903e-12
1.55786e-12
2.01297e-12
2.23532e-13
6.70923e-13
1.98952e-13
-8.38365e-13
-1.1995e-12
-1.8696e-12
-1.71167e-12
-1.4934e-12
-1.11403e-12
-1.67701e-12
-1.83303e-12
-2.02195e-12
7.32135e-13
-2.41584e-13
-3.28767e-13
1.84741e-13
4.88131e-13
-7.65635e-16
-6.40288e-13
-3.02731e-13
1.27898e-13
8.1111e-13
1.18551e-12
6.93726e-13
-2.56616e-13
-4.26326e-14
-7.56927e-13
-3.15619e-13
-2.41585e-13
-1.49773e-13
-7.49441e-13
3.39308e-13
1.57187e-12
1.73794e-12
1.88878e-12
7.56768e-13
7.64723e-13
3.07241e-13
-2.84215e-14
-2.70006e-13
1.41492e-13
-5.03226e-13
-9.09791e-13
-1.15778e-12
-2.70006e-13
-3.04639e-13
9.1171e-13
1.17721e-12
6.26464e-13
1.43013e-12
1.61666e-12
1.17967e-12
1.46388e-12
2.19719e-13
5.74982e-13
4.03081e-13
1.33149e-12
1.32871e-12
3.72872e-13
6.8513e-13
1.3746e-12
1.28853e-13
2.61462e-13
-2.55795e-13
-6.20061e-13
-3.12639e-13
-4.24246e-13
4.92379e-13
1.44378e-12
1.90603e-12
1.12058e-12
1.82032e-12
1.8054e-12
6.14714e-13
9.40637e-13
1.42018e-12
7.01899e-13
6.6791e-13
1.60044e-12
1.55192e-12
6.94007e-13
-4.14113e-13
-4.81139e-13
1.30107e-12
6.85963e-13
9.66733e-14
-1.80155e-12
-2.28881e-12
-1.85588e-12
-7.10932e-13
-2.08189e-14
-1.55901e-12
-2.19103e-12
-1.8226e-12
-2.23278e-12
-2.3108e-12
-2.32187e-12
-2.12423e-12
-1.09026e-12
-6.56752e-13
5.18359e-14
1.12249e-12
-6.29568e-13
-7.19488e-13
2.84217e-14
-4.1149e-13
2.85213e-13
-4.68721e-13
-1.96841e-12
-2.02585e-12
-8.51549e-14
1.05394e-12
1.06381e-12
4.13488e-14
-1.09773e-12
-8.32399e-13
-9.54445e-13
-1.45457e-12
-5.06019e-13
-1.58612e-13
7.09422e-13
7.42998e-14
2.27374e-13
7.43331e-13
1.09784e-12
1.66555e-12
2.75058e-12
1.07803e-12
8.31141e-13
7.71794e-14
4.26326e-14
5.25802e-13
-1.46036e-13
-7.43742e-13
-4.78809e-13
-7.69858e-13
8.44417e-15
5.07535e-13
5.21836e-13
6.81032e-13
-7.67404e-13
-3.99601e-13
-5.58795e-13
-9.43702e-13
-5.81124e-13
-1.32247e-13
5.68001e-13
4.85114e-13
2.47791e-13
4.09566e-13
-2.27374e-13
-2.13409e-13
3.16202e-13
-6.77059e-14
1.01321e-12
1.49746e-12
1.46628e-12
1.97072e-12
1.30116e-12
7.10688e-13
2.79117e-14
-5.59247e-13
5.85785e-13
4.95818e-13
3.83693e-13
-2.3092e-13
-3.33759e-13
2.22721e-13
4.6141e-13
8.35859e-14
-7.7508e-13
-7.65674e-13
-1.79115e-12
-4.6664e-13
-2.00088e-12
-1.91699e-12
-2.59305e-12
-3.3561e-12
-3.24547e-12
-3.41301e-12
-2.18311e-12
-1.68127e-12
-1.87574e-12
-1.34366e-12
-1.56107e-12
-4.26324e-14
1.42108e-14
1.58179e-13
-8.8901e-14
-1.12598e-12
-6.88236e-13
-5.0361e-13
-4.10297e-13
3.705e-13
9.00751e-13
-1.42109e-13
-1.22907e-13
-8.5308e-13
-2.0341e-13
2.27374e-13
1.05767e-12
1.36835e-12
1.13813e-12
1.82313e-12
2.28156e-12
1.56653e-12
4.17632e-13
3.15465e-13
2.70006e-13
-1.29267e-13
7.12898e-13
9.89976e-13
1.01284e-12
1.57799e-12
2.91205e-13
1.55661e-12
1.64084e-12
1.56485e-12
6.76009e-13
1.25413e-12
3.06841e-13
-7.1254e-13
-3.0642e-13
1.27971e-13
5.05638e-13
-6.38953e-13
-1.81271e-12
-7.23551e-13
-1.39449e-12
-6.15417e-13
-3.83996e-13
-7.304e-14
2.13163e-13
4.24565e-13
-9.33531e-13
-5.06912e-13
-8.2423e-13
-1.40334e-12
-2.22932e-12
-1.42306e-12
-1.16515e-12
-1.06377e-12
-9.16298e-13
-7.8391e-13
-6.08831e-13
1.56682e-13
-4.51973e-13
4.37734e-13
5.51479e-13
-5.39841e-13
-6.52814e-13
-5.13494e-13
-1.44866e-12
2.41584e-13
6.3754e-13
-2.13163e-13
-5.26492e-13
2.37914e-13
9.9996e-13
1.49637e-13
-2.84215e-14
-3.9978e-13
-6.29246e-13
1.61441e-13
-1.27898e-13
-7.74694e-14
5.8699e-14
-5.87274e-13
-1.27898e-13
-3.88933e-13
-1.39093e-12
-8.06375e-13
-1.27762e-12
-2.80003e-13
5.11701e-13
-4.20731e-14
3.65757e-14
8.52652e-14
5.96856e-13
6.55758e-13
-8.60507e-13
-5.1818e-13
-1.51871e-12
-1.30643e-12
-8.91682e-13
-3.00691e-13
-3.36292e-13
-7.18021e-13
-7.52842e-13
-1.29522e-12
-7.92101e-13
-3.85623e-13
-2.13163e-13
-5.68434e-14
-8.96221e-13
-5.06882e-13
1.32359e-12
1.55989e-12
2.70006e-13
-3.12371e-13
-8.71499e-13
-7.81009e-13
-1.36288e-12
-2.17533e-12
-1.15198e-12
-1.49787e-12
-1.78065e-12
-1.82817e-12
-8.38024e-13
-1.37877e-12
-1.83298e-12
-1.97283e-12
-1.86904e-12
-1.90817e-12
-1.84307e-12
-1.22957e-12
-9.9963e-13
-1.83939e-13
-1.14694e-12
-1.21949e-12
-2.27378e-12
-2.80891e-12
-2.98937e-12
-2.2599e-12
-3.07886e-12
-4.1197e-12
-4.30449e-12
-2.91061e-12
-4.25079e-12
-3.89971e-12
-3.60145e-12
-3.45273e-12
-2.79684e-12
-2.45656e-12
-1.49199e-12
-1.62228e-12
-9.88294e-13
2.96832e-13
1.02484e-12
1.03569e-12
6.7059e-13
-3.69411e-13
1.56319e-13
6.68557e-13
9.45628e-13
1.90145e-12
4.99384e-12
1.48986e-11
4.48497e-11
1.36912e-10
4.03401e-10
1.15752e-09
3.27353e-09
9.11323e-09
2.49763e-08
6.73577e-08
1.78689e-07
4.66047e-07
1.19441e-06
3.00633e-06
7.42734e-06
1.80003e-05
4.27664e-05
9.95433e-05
0.000226831
0.000505653
0.00110185
0.00234505
0.00487044
0.00986219
0.0194516
0.0373319
0.0696478
0.126178
0.221746
0.377644
0.622662
0.993115
1.5312
2.28119
3.28347
4.56732
6.14428
8.00419
10.1161
12.434
14.9067
17.4868
20.1373
22.8333
25.5594
28.307
31.071
33.8487
36.6384
39.439
42.2496
45.0696
47.8986
50.7365
53.5832
56.4385
59.3026
62.1757
65.0577
67.9492
70.8501
73.7604
76.6771
79.544
)
;

boundaryField
{
    sideLeft
    {
        type            symmetryPlane;
        value           uniform 0;
    }
    sideRight
    {
        type            calculated;
        value           uniform 82.486;
    }
    topbottom
    {
        type            empty;
        value           nonuniform 0();
    }
    frontback
    {
        type            empty;
        value           nonuniform 0();
    }
}


// ************************************************************************* //
