/*--------------------------------*- C++ -*----------------------------------*\
| =========                 |                                                 |
| \\      /  F ield         | OpenFOAM: The Open Source CFD Toolbox           |
|  \\    /   O peration     | Version:  2.4.0                                 |
|   \\  /    A nd           | Web:      www.OpenFOAM.org                      |
|    \\/     M anipulation  |                                                 |
\*---------------------------------------------------------------------------*/
FoamFile
{
    version     2.0;
    format      ascii;
    class       surfaceScalarField;
    location    "0.01";
    object      phi.water;
}
// * * * * * * * * * * * * * * * * * * * * * * * * * * * * * * * * * * * * * //

dimensions      [0 3 -1 0 0 0 0];

internalField   nonuniform List<scalar> 
999
(
-7.22926e-13
-1.27898e-13
-6.65956e-13
-5.62046e-13
-4.86125e-13
-1.43174e-13
-1.27898e-13
-1.14757e-12
-9.13469e-13
-6.92897e-13
-2.09448e-12
-2.30772e-12
-5.61512e-13
3.78846e-13
-5.96239e-13
1.30269e-12
4.58359e-13
4.79468e-13
-1.84741e-13
7.77244e-13
-4.32021e-13
2.84218e-14
-6.39489e-13
4.31073e-13
6.39733e-13
9.62163e-13
3.28089e-13
7.6902e-13
2.54743e-13
-6.56173e-13
-1.58351e-13
8.24088e-13
1.18474e-12
1.06098e-12
4.93922e-13
-6.43034e-13
-3.95664e-13
-4.12115e-13
2.39903e-13
2.59779e-13
-2.55795e-13
3.77866e-13
-6.34363e-13
-8.58131e-13
-5.28146e-13
-1.50561e-12
-1.3135e-12
-8.77714e-13
-4.37111e-13
-9.30946e-13
-1.80346e-12
-1.02227e-12
-3.89185e-13
-1.24654e-13
-7.35359e-13
-2.84649e-13
1.39109e-13
4.80095e-13
6.53699e-13
5.89351e-13
7.55925e-13
2.12932e-13
1.43217e-12
1.43467e-12
4.16867e-12
4.36083e-12
4.69354e-12
4.66895e-12
2.67888e-12
1.58884e-12
1.56319e-13
8.3044e-13
6.60838e-13
7.23271e-13
7.50442e-13
7.21365e-13
1.32343e-12
1.12013e-12
1.61459e-12
5.06683e-13
5.66421e-13
-8.72973e-13
-8.4462e-13
-9.33517e-13
-2.45461e-12
-2.75569e-12
-2.46912e-12
-3.31253e-12
-4.30489e-12
-3.53463e-12
-2.22025e-12
-2.41155e-12
-2.16955e-12
-1.97812e-12
-7.45809e-13
-1.4029e-13
4.76027e-13
7.1936e-13
8.11399e-13
8.91837e-13
6.25015e-13
6.79442e-13
2.84216e-14
3.12639e-13
-1.04555e-12
9.24807e-13
9.94759e-14
-8.76834e-13
-4.58215e-13
-1.67564e-13
1.9355e-13
-2.55795e-13
-1.05886e-12
-8.28998e-13
-4.86681e-13
2.49529e-14
2.34417e-13
7.10542e-14
1.2073e-12
1.66157e-12
6.51087e-13
4.68457e-13
4.70724e-13
-9.31841e-13
-8.88897e-13
-5.6987e-13
-8.04997e-13
-4.05793e-13
-7.1173e-13
-1.68241e-12
-1.70404e-12
-9.52681e-13
5.55809e-13
7.57098e-13
8.33173e-13
3.41415e-13
1.3391e-12
5.23347e-13
2.36409e-12
1.93424e-12
1.80487e-12
1.30185e-12
3.5676e-13
4.44423e-13
7.9752e-13
-3.23341e-13
-8.51268e-13
-1.40443e-12
-1.42109e-13
-6.53355e-13
-3.43873e-13
-8.52651e-14
1.27796e-12
1.13687e-13
-2.17184e-14
-1.30465e-12
-4.72396e-13
1.4291e-13
-3.44831e-13
-8.06065e-13
8.08368e-13
2.21833e-13
-7.00379e-13
-5.5923e-13
-1.08892e-12
-1.85149e-13
1.36476e-12
9.97878e-13
1.41465e-13
5.9671e-13
-2.75686e-14
5.68434e-14
-1.23516e-12
-6.9269e-13
-2.292e-12
-9.78406e-13
-9.9128e-13
-1.42109e-13
-1.35427e-12
-1.37242e-12
-1.57152e-12
-6.64363e-13
-1.01442e-12
-1.39967e-12
-1.62343e-12
-6.04582e-13
8.42681e-13
2.44326e-12
3.48472e-12
2.7124e-12
1.17125e-12
1.90631e-13
-1.32543e-12
-9.78702e-13
1.89539e-13
3.12639e-13
9.94759e-14
-1.36497e-12
-1.51215e-12
-2.61093e-12
-7.13323e-13
-5.93574e-13
6.42979e-13
1.41948e-13
-9.79667e-13
-7.60303e-13
-1.26931e-12
-6.69796e-13
-1.72291e-13
3.90596e-13
3.12639e-13
9.79855e-13
2.13271e-12
2.13849e-12
2.57338e-12
2.75497e-12
2.03195e-12
1.14568e-12
1.29546e-12
1.80969e-12
2.04315e-12
1.79492e-12
2.10675e-14
-3.40215e-13
-3.9218e-13
-7.82281e-13
-4.25889e-14
-1.98952e-13
4.9738e-13
9.01251e-13
-3.0641e-15
-3.17154e-13
-1.24366e-12
-1.60738e-12
-5.03597e-13
-1.00127e-12
-4.89588e-13
3.2685e-13
1.27898e-13
-1.98378e-20
-1.35738e-12
-2.77168e-12
-2.18757e-12
-1.08737e-12
-4.68958e-13
-1.41236e-12
-1.24441e-12
-1.76239e-12
-2.01556e-12
-5.22661e-13
-1.03588e-12
-8.24823e-13
-9.80968e-13
-1.27017e-12
-7.52815e-14
6.02966e-13
8.7203e-13
-3.97116e-13
-3.06447e-13
-3.12639e-13
-4.44838e-13
-1.05988e-12
-8.05733e-13
-7.58815e-13
1.67488e-13
-9.6687e-13
-2.33463e-12
-1.7759e-12
-6.84878e-13
3.71445e-13
-3.0441e-13
-6.33057e-14
1.20541e-12
7.64105e-13
1.09189e-12
2.50526e-12
2.50573e-12
4.48505e-13
8.40474e-14
1.13687e-13
-8.09884e-13
-2.84219e-14
-1.42108e-13
-3.00656e-13
7.51353e-13
1.1815e-12
1.63254e-12
1.52143e-12
5.28812e-13
-7.10543e-14
-4.85521e-13
-1.04834e-12
8.55274e-14
-7.82624e-13
1.98952e-13
7.10543e-13
3.6931e-13
1.2534e-12
1.0002e-12
8.83223e-13
1.2907e-12
-9.9476e-14
1.42108e-13
-5.64679e-13
1.75753e-12
2.48724e-12
1.65669e-12
2.62578e-12
2.70284e-12
1.81976e-12
1.64349e-12
1.02174e-12
1.04321e-12
4.7307e-13
-9.37559e-13
-2.27491e-12
-1.72342e-12
-2.63182e-13
3.85712e-13
1.93363e-15
-1.22651e-12
-2.16473e-12
-2.18991e-12
-2.26107e-12
-6.52513e-13
6.55799e-13
7.00135e-13
3.50788e-13
4.26326e-14
4.89462e-14
-5.04514e-13
-1.36797e-12
2.43419e-13
2.84218e-14
1.04653e-12
1.13044e-12
2.55796e-13
1.6492e-12
8.58562e-13
6.53365e-13
5.49873e-13
-3.98147e-13
-1.24177e-12
-2.58815e-13
-2.2837e-13
1.91508e-13
6.15435e-13
1.30445e-12
7.75412e-13
-3.79142e-13
-1.60618e-12
-2.27374e-13
-1.20062e-12
-6.99959e-13
-2.94563e-13
-1.17116e-13
2.33922e-13
5.33445e-13
8.20798e-13
2.88879e-13
-3.2685e-13
1.13289e-14
4.03379e-13
1.14022e-12
1.08144e-12
2.23845e-12
2.83141e-12
1.00142e-12
8.56277e-13
7.55287e-13
7.10541e-14
1.07399e-12
6.56739e-13
2.33999e-13
9.61949e-13
-3.21971e-13
-1.56175e-12
-8.43894e-13
-7.67503e-13
-2.99995e-13
-1.46124e-13
-7.36665e-13
-1.44209e-12
-1.15651e-12
-1.09745e-12
-6.01762e-13
3.55271e-13
7.22375e-13
1.07576e-12
2.60201e-12
1.55406e-12
8.47847e-13
1.29539e-12
1.36369e-12
7.65883e-13
2.4485e-13
-5.26192e-13
-1.42108e-14
1.14808e-12
2.05688e-12
9.64525e-13
1.7053e-13
-1.59371e-12
-2.06623e-12
-3.07094e-12
-8.14237e-13
-2.81981e-13
-4.00963e-13
-7.93251e-13
-1.20854e-12
-6.97282e-13
-5.40546e-13
-2.03978e-12
-1.72956e-12
-1.82851e-12
-5.00908e-13
-8.57931e-13
3.2685e-13
-4.12115e-13
6.0864e-13
6.78304e-13
-3.56908e-13
-7.10687e-13
5.57544e-13
1.01622e-12
1.22554e-12
-8.9362e-13
-1.44691e-12
-2.17591e-12
-2.32019e-12
-2.05196e-12
-2.05097e-12
-8.91662e-13
-7.43709e-13
-7.08252e-13
-5.75048e-13
3.2685e-13
5.11591e-13
1.58015e-12
8.99449e-13
4.51802e-13
-1.06754e-12
-1.00897e-12
-1.81634e-12
-1.30767e-12
-1.39659e-12
-7.05477e-13
-2.70328e-13
5.5345e-13
-2.96011e-14
-4.00547e-13
-2.28356e-13
5.96856e-13
2.97272e-13
3.32918e-15
-2.41584e-13
-1.31513e-13
3.70183e-13
5.09921e-13
1.92213e-12
7.81564e-13
6.66646e-13
1.52022e-13
-6.32014e-14
-4.52773e-13
-1.70764e-12
-1.75426e-12
-2.1702e-12
-1.38374e-12
-1.25037e-12
-1.56126e-12
-7.02006e-13
6.40342e-13
1.64187e-12
1.69681e-12
3.22182e-13
9.60199e-13
5.79783e-13
3.12881e-13
1.01016e-12
3.27807e-13
8.75372e-13
1.57747e-12
6.70622e-13
3.12639e-13
-3.55271e-13
-5.93102e-14
-7.31048e-13
-2.32287e-12
-4.26326e-14
1.33964e-12
7.63667e-13
1.45749e-12
7.70629e-13
-1.14004e-12
-1.11611e-12
-1.53398e-12
-1.51357e-12
-2.73303e-12
-1.54986e-12
-7.05576e-13
-1.15652e-12
7.02654e-13
5.67611e-13
1.1442e-12
3.73697e-13
-1.47309e-12
-8.09335e-13
-1.02082e-12
-4.84941e-13
-1.26496e-13
-9.94687e-16
-6.61576e-13
-1.64199e-12
-1.21113e-12
1.27898e-13
1.25782e-12
-4.26327e-14
9.79954e-13
2.19799e-12
2.99846e-13
-4.22286e-13
-4.22481e-13
5.25802e-13
2.84218e-14
1.09263e-12
2.27548e-12
2.08656e-12
2.00046e-12
8.40669e-13
1.36688e-12
3.4077e-13
4.74568e-13
-2.84217e-13
8.2573e-14
3.12833e-13
6.60556e-13
1.80808e-12
1.12394e-12
7.08981e-13
7.40299e-13
-5.38393e-13
-1.76081e-12
-7.40442e-13
-3.34593e-13
-3.83693e-13
-8.29817e-13
-1.64572e-12
-9.5178e-13
8.52651e-14
9.92276e-14
-9.63207e-14
-1.08639e-12
-4.68958e-13
-2.82457e-13
-8.71034e-13
-1.56527e-12
-6.94653e-13
-7.754e-13
-1.14595e-12
-1.19681e-13
1.3945e-13
1.42109e-14
-3.78016e-13
-3.55271e-13
5.24714e-13
1.25451e-12
7.61571e-13
5.97341e-13
-5.34089e-13
-5.06855e-13
-4.11108e-13
-2.93617e-13
-1.42108e-14
9.7067e-13
1.5312e-12
1.64165e-12
1.69551e-12
2.53398e-13
-2.65931e-13
-5.61781e-13
-6.49284e-13
-3.67989e-13
-1.21615e-13
1.45936e-14
5.60045e-13
1.6985e-12
2.06945e-12
1.67191e-12
7.35123e-13
1.59332e-13
1.98952e-13
-4.97305e-13
-1.14265e-12
-2.09698e-12
-1.82536e-12
-1.43656e-12
-1.39825e-12
-1.73386e-12
-2.00356e-12
-1.39668e-12
5.04761e-13
9.94761e-14
-4.99297e-13
-1.56319e-13
4.88131e-13
-1.71296e-13
-1.28697e-13
-4.73261e-13
-4.26326e-14
6.97423e-13
1.2992e-12
7.50569e-13
-1.42929e-13
1.27898e-13
-8.1377e-13
-3.15619e-13
-4.12115e-13
-3.77147e-13
-6.92597e-13
6.23525e-13
1.62872e-12
1.45372e-12
1.88878e-12
6.43081e-13
6.51036e-13
5.34615e-13
-2.84215e-14
-2.13163e-13
1.98335e-13
-6.16913e-13
-9.09791e-13
-1.15778e-12
-2.70006e-13
9.32653e-14
9.1171e-13
8.36149e-13
7.96994e-13
1.37329e-12
1.90088e-12
1.12283e-12
1.23651e-12
4.47093e-13
2.90765e-13
6.87298e-13
1.16096e-12
1.15818e-12
7.70776e-13
3.4407e-13
1.03354e-12
5.836e-13
-7.95981e-14
-2.84218e-14
-9.04278e-13
-1.42109e-13
-5.37933e-13
3.78693e-13
2.18274e-12
1.56497e-12
1.34796e-12
1.99086e-12
1.57803e-12
3.30497e-13
8.2695e-13
1.53387e-12
5.88212e-13
7.81597e-13
1.42991e-12
1.89298e-12
3.52947e-13
-8.6886e-13
3.14668e-13
6.1895e-13
1.31124e-12
9.66733e-14
-1.85839e-12
-2.57303e-12
-1.45797e-12
-8.81462e-13
9.28679e-14
-1.61585e-12
-1.90682e-12
-1.87945e-12
-2.28962e-12
-2.25396e-12
-2.20818e-12
-2.74951e-12
-5.78672e-13
-8.27282e-13
1.65523e-13
4.97217e-13
-9.13785e-13
-1.51054e-13
1.98952e-13
-3.54646e-13
2.2837e-13
-7.52938e-13
-1.79788e-12
-2.13954e-12
-1.98842e-13
1.33815e-12
9.50123e-13
1.55036e-13
-8.7036e-13
-1.40083e-12
-1.01129e-12
-8.86134e-13
-9.60767e-13
1.25605e-13
7.66266e-13
4.72204e-13
2.72238e-20
8.57018e-13
1.15468e-12
1.94976e-12
1.89793e-12
1.19171e-12
9.44828e-13
3.04553e-13
-7.10542e-14
4.68958e-13
-1.46036e-13
-6.86898e-13
-3.65122e-13
-5.99328e-13
-1.05243e-13
5.07535e-13
1.20396e-12
3.96815e-13
-9.94777e-13
-3.99601e-13
-4.45108e-13
-1.34161e-12
-8.65341e-13
2.08814e-13
6.81687e-13
4.2827e-13
-9.32694e-14
4.09566e-13
2.27374e-13
-3.27095e-13
3.19847e-14
4.59809e-14
5.58461e-13
1.61114e-12
2.20525e-12
1.62966e-12
1.35801e-12
9.38062e-13
-2.56305e-13
-6.1609e-13
5.28942e-13
5.52661e-13
2.70006e-13
5.32975e-14
-4.47446e-13
2.22721e-13
2.34036e-13
-3.01009e-14
-5.47706e-13
-7.65674e-13
-1.73431e-12
-6.94013e-13
-2.00088e-12
-1.46224e-12
-2.87726e-12
-3.41294e-12
-3.07494e-12
-3.58354e-12
-2.06942e-12
-1.90864e-12
-1.42099e-12
-1.57103e-12
-1.39054e-12
-3.83693e-13
1.42108e-14
1.01335e-13
1.38473e-13
-1.29651e-12
-4.60863e-13
-5.60453e-13
-1.2608e-13
1.99969e-13
9.57594e-13
1.98952e-13
-3.50281e-13
-1.36467e-12
2.39641e-14
1.13687e-13
1.05767e-12
1.59573e-12
1.19497e-12
1.6526e-12
2.73631e-12
1.16862e-12
4.74475e-13
1.44935e-13
5.54223e-13
2.11794e-13
1.44463e-13
9.33132e-13
8.99149e-13
1.63483e-12
6.89109e-13
1.95451e-12
1.35663e-12
1.56485e-12
4.48635e-13
1.0836e-12
3.63684e-13
-4.85166e-13
-5.90637e-13
5.82718e-13
-5.95265e-15
-6.38953e-13
-1.52849e-12
-1.12146e-12
-1.39449e-12
-1.6067e-13
-5.54527e-13
-2.4357e-13
5.54223e-13
4.24565e-13
-1.1609e-12
-7.34286e-13
-8.2423e-13
-1.23281e-12
-2.05879e-12
-1.53674e-12
-1.22199e-12
-9.50088e-13
-1.08683e-12
-8.97597e-13
-3.81457e-13
-1.27535e-13
5.96181e-14
2.1036e-13
2.67262e-13
-1.41937e-13
-4.82283e-13
-7.97711e-13
-1.16444e-12
-2.13163e-13
5.23853e-13
-2.70006e-13
-4.69648e-13
-2.16833e-13
9.43116e-13
6.61228e-13
-2.84215e-14
-5.13467e-13
-2.88186e-13
-6.59331e-14
1.56319e-13
-1.91156e-13
-7.93952e-13
2.65378e-13
-1.84741e-13
-4.45776e-13
-1.44777e-12
-6.92688e-13
-1.05025e-12
-1.07581e-12
8.52761e-13
2.42144e-13
5.48166e-13
-3.69482e-13
4.83169e-13
8.7324e-14
-3.48917e-13
-4.61336e-13
-1.29134e-12
-1.47696e-12
-7.77995e-13
-8.12282e-13
1.18456e-13
-3.20117e-13
-9.80216e-13
-1.46575e-12
-1.19e-12
-2.71936e-13
-9.9476e-14
6.74102e-21
-6.68847e-13
-5.63725e-13
1.20991e-12
1.61674e-12
3.83693e-13
-3.12371e-13
-1.43993e-12
-9.51539e-13
-9.08134e-13
-1.72058e-12
-1.72042e-12
-1.44103e-12
-2.17855e-12
-1.0892e-12
-1.00855e-12
-1.20824e-12
-1.83298e-12
-2.08651e-12
-1.8122e-12
-2.02186e-12
-1.84307e-12
-1.34326e-12
-8.291e-13
-2.40782e-13
-1.26063e-12
-1.04896e-12
-2.38747e-12
-2.86575e-12
-2.53462e-12
-2.82833e-12
-2.85149e-12
-4.17655e-12
-4.41818e-12
-2.91061e-12
-3.79604e-12
-4.29761e-12
-3.71513e-12
-3.22536e-12
-2.79684e-12
-2.51341e-12
-1.60567e-12
-1.5086e-12
-9.88294e-13
-4.42283e-14
1.13853e-12
1.14937e-12
2.72686e-13
3.69553e-13
1.56319e-13
6.11713e-13
7.75098e-13
2.29936e-12
3.91381e-12
1.43301e-11
4.41676e-11
1.33558e-10
3.93396e-10
1.13103e-09
3.20151e-09
8.92059e-09
2.44704e-08
6.60509e-08
1.75374e-07
4.57796e-07
1.17427e-06
2.95815e-06
7.31444e-06
1.77415e-05
4.21862e-05
9.8273e-05
0.000224117
0.000500001
0.00109039
0.00232246
0.00482721
0.009782
0.0193076
0.0370823
0.0692307
0.125508
0.220714
0.376124
0.620531
0.99028
1.52764
2.27698
3.27883
4.56258
6.13982
8.00037
10.1131
12.4321
14.9057
17.4864
20.1374
22.8337
25.5599
28.3076
31.0717
33.8494
36.6391
39.4397
42.2503
45.0703
47.8993
50.7372
53.5838
56.4392
59.3033
62.1763
65.0583
67.9499
70.8509
73.7624
76.6833
79.5563
)
;

boundaryField
{
    sideLeft
    {
        type            symmetryPlane;
        value           uniform 0;
    }
    sideRight
    {
        type            calculated;
        value           uniform 254.016;
    }
    topbottom
    {
        type            empty;
        value           nonuniform 0();
    }
    frontback
    {
        type            empty;
        value           nonuniform 0();
    }
}


// ************************************************************************* //
