/*--------------------------------*- C++ -*----------------------------------*\
| =========                 |                                                 |
| \\      /  F ield         | OpenFOAM: The Open Source CFD Toolbox           |
|  \\    /   O peration     | Version:  2.4.0                                 |
|   \\  /    A nd           | Web:      www.OpenFOAM.org                      |
|    \\/     M anipulation  |                                                 |
\*---------------------------------------------------------------------------*/
FoamFile
{
    version     2.0;
    format      ascii;
    class       volVectorField;
    location    "0.01";
    object      U.airMean;
}
// * * * * * * * * * * * * * * * * * * * * * * * * * * * * * * * * * * * * * //

dimensions      [0 1 -1 0 0 0 0];

internalField   nonuniform List<vector> 
1000
(
(-4.46931e-14 0 0)
(-1.14397e-14 0 0)
(-1.32161e-14 0 0)
(-9.73443e-15 0 0)
(-3.15481e-14 0 0)
(2.66453e-14 0 0)
(-8.66861e-15 0 0)
(8.17123e-15 0 0)
(-3.83693e-14 0 0)
(-2.90612e-14 0 0)
(-3.09086e-14 0 0)
(-9.11626e-14 0 0)
(-7.95814e-15 0 0)
(-6.59383e-14 0 0)
(-1.73372e-14 0 0)
(2.07478e-14 0 0)
(-1.15818e-14 0 0)
(3.65929e-14 0 0)
(3.24718e-14 0 0)
(-1.81899e-14 0 0)
(9.27968e-14 0 0)
(8.88179e-15 0 0)
(4.16378e-14 0 0)
(1.36424e-14 0 0)
(-6.39487e-15 0 0)
(-6.32383e-15 0 0)
(5.75539e-15 0 0)
(4.76063e-15 0 0)
(-2.19557e-14 0 0)
(8.33466e-14 0 0)
(2.43006e-14 0 0)
(6.31673e-14 0 0)
(1.11626e-13 0 0)
(2.58638e-14 0 0)
(9.44311e-14 0 0)
(-3.55272e-15 0 0)
(-3.21876e-14 0 0)
(-7.02727e-14 0 0)
(-1.02602e-13 0 0)
(-9.20863e-14 0 0)
(-2.3519e-14 0 0)
(-1.11839e-13 0 0)
(-6.16041e-14 0 0)
(-9.31521e-14 0 0)
(-7.87992e-14 0 0)
(-5.38592e-14 0 0)
(-1.00684e-13 0 0)
(-5.04485e-14 0 0)
(-7.10765e-17 0 0)
(-4.86722e-14 0 0)
(-4.39826e-14 0 0)
(-3.18323e-14 0 0)
(-7.54596e-14 0 0)
(2.45848e-14 0 0)
(9.87654e-15 0 0)
(4.07851e-14 0 0)
(1.95399e-14 0 0)
(1.11271e-13 0 0)
(8.04335e-14 0 0)
(1.1525e-13 0 0)
(1.0715e-13 0 0)
(1.26974e-13 0 0)
(1.21929e-13 0 0)
(1.09139e-13 0 0)
(2.11031e-13 0 0)
(1.59801e-13 0 0)
(1.93054e-13 0 0)
(1.38058e-13 0 0)
(1.17097e-13 0 0)
(1.64206e-13 0 0)
(3.3964e-14 0 0)
(1.37064e-13 0 0)
(-3.41057e-15 0 0)
(-1.05871e-14 0 0)
(-1.32161e-14 0 0)
(-8.55493e-14 0 0)
(2.85638e-14 0 0)
(-5.59908e-14 0 0)
(1.49213e-15 0 0)
(-1.98951e-15 0 0)
(-2.31637e-14 0 0)
(1.66267e-14 0 0)
(-5.22248e-14 0 0)
(6.0396e-15 0 0)
(2.06768e-14 0 0)
(2.37321e-14 0 0)
(-3.02691e-14 0 0)
(-3.71614e-14 0 0)
(-3.53851e-14 0 0)
(-9.63496e-14 0 0)
(-3.75167e-14 0 0)
(-6.08935e-14 0 0)
(-7.89413e-14 0 0)
(2.65743e-14 0 0)
(7.26885e-14 0 0)
(5.83355e-14 0 0)
(-3.06244e-14 0 0)
(3.9364e-14 0 0)
(-5.17985e-14 0 0)
(-2.52243e-14 0 0)
(-4.77485e-14 0 0)
(-5.13723e-14 0 0)
(-5.40723e-14 0 0)
(-8.86757e-14 0 0)
(-1.42961e-13 0 0)
(-1.65414e-13 0 0)
(-8.2423e-14 0 0)
(-1.38556e-13 0 0)
(-1.24913e-13 0 0)
(-1.21645e-13 0 0)
(-1.20153e-13 0 0)
(-9.79128e-14 0 0)
(-1.67191e-13 0 0)
(-1.21787e-13 0 0)
(-1.43814e-13 0 0)
(-1.82609e-13 0 0)
(-6.38068e-14 0 0)
(-6.2883e-14 0 0)
(5.77671e-14 0 0)
(5.52092e-14 0 0)
(8.15703e-14 0 0)
(9.75575e-14 0 0)
(7.73071e-14 0 0)
(7.89413e-14 0 0)
(1.17168e-13 0 0)
(1.31237e-13 0 0)
(1.42464e-13 0 0)
(1.4758e-13 0 0)
(1.86304e-13 0 0)
(1.98526e-13 0 0)
(1.64633e-13 0 0)
(1.85949e-13 0 0)
(1.51132e-13 0 0)
(1.55254e-13 0 0)
(5.74119e-14 0 0)
(6.50857e-14 0 0)
(8.96705e-14 0 0)
(5.20828e-14 0 0)
(1.54046e-13 0 0)
(6.60095e-14 0 0)
(1.63425e-13 0 0)
(5.7483e-14 0 0)
(7.70228e-14 0 0)
(1.02105e-13 0 0)
(1.84744e-15 0 0)
(6.37357e-14 0 0)
(-6.53697e-15 0 0)
(9.94756e-15 0 0)
(-2.84217e-14 0 0)
(-4.49063e-14 0 0)
(-1.17311e-13 0 0)
(-1.06013e-13 0 0)
(-1.80194e-13 0 0)
(-1.76001e-13 0 0)
(-1.47722e-13 0 0)
(-1.51914e-13 0 0)
(-1.29035e-13 0 0)
(-1.65699e-13 0 0)
(-1.49569e-13 0 0)
(-1.40759e-13 0 0)
(-1.6712e-13 0 0)
(-1.60938e-13 0 0)
(-1.09921e-13 0 0)
(-9.52838e-14 0 0)
(-6.22436e-14 0 0)
(-4.80327e-14 0 0)
(6.10356e-14 0 0)
(4.36984e-14 0 0)
(-2.84214e-15 0 0)
(9.66336e-15 0 0)
(3.05533e-14 0 0)
(1.61293e-14 0 0)
(4.24194e-14 0 0)
(-4.54747e-15 0 0)
(-3.17612e-14 0 0)
(4.853e-14 0 0)
(-3.17612e-14 0 0)
(6.40199e-14 0 0)
(-3.51718e-14 0 0)
(1.44951e-14 0 0)
(3.33955e-14 0 0)
(1.16529e-14 0 0)
(6.46593e-15 0 0)
(1.51346e-14 0 0)
(6.97753e-14 0 0)
(9.59233e-14 0 0)
(1.56959e-13 0 0)
(4.66117e-14 0 0)
(1.98526e-13 0 0)
(9.40759e-14 0 0)
(9.61364e-14 0 0)
(2.59348e-14 0 0)
(7.03437e-14 0 0)
(2.92744e-14 0 0)
(-3.17612e-14 0 0)
(-1.08003e-14 0 0)
(-5.61328e-14 0 0)
(-1.3003e-14 0 0)
(-9.83391e-14 0 0)
(-6.06804e-14 0 0)
(-1.05729e-13 0 0)
(-1.48574e-13 0 0)
(-1.50777e-13 0 0)
(-1.04663e-13 0 0)
(-1.17808e-13 0 0)
(-1.31308e-13 0 0)
(-4.84591e-14 0 0)
(-1.4694e-13 0 0)
(-1.20011e-13 0 0)
(-5.84066e-14 0 0)
(-3.96483e-14 0 0)
(-3.52429e-14 0 0)
(1.71241e-14 0 0)
(6.25278e-14 0 0)
(1.48788e-13 0 0)
(1.25411e-13 0 0)
(7.04859e-14 0 0)
(1.14184e-13 0 0)
(2.69296e-14 0 0)
(1.23777e-13 0 0)
(8.44835e-14 0 0)
(2.28084e-14 0 0)
(4.83169e-14 0 0)
(3.11928e-14 0 0)
(2.84217e-14 0 0)
(1.45661e-14 0 0)
(5.25091e-14 0 0)
(5.60618e-14 0 0)
(1.02816e-13 0 0)
(2.89902e-14 0 0)
(2.28084e-14 0 0)
(2.38032e-14 0 0)
(-6.5512e-14 0 0)
(3.36086e-14 0 0)
(-2.93454e-14 0 0)
(3.06244e-14 0 0)
(-4.57589e-14 0 0)
(-4.29168e-14 0 0)
(-1.98242e-14 0 0)
(-5.52092e-14 0 0)
(-2.84928e-14 0 0)
(-6.75726e-14 0 0)
(-8.40572e-14 0 0)
(-8.07176e-14 0 0)
(-4.51905e-14 0 0)
(-1.11342e-13 0 0)
(-5.94014e-14 0 0)
(-3.05534e-15 0 0)
(3.36086e-14 0 0)
(3.02691e-14 0 0)
(-9.66338e-14 0 0)
(-5.32913e-15 0 0)
(-1.63212e-13 0 0)
(-1.61151e-13 0 0)
(-1.97744e-13 0 0)
(-2.32703e-13 0 0)
(-1.14753e-13 0 0)
(-9.20153e-14 0 0)
(-1.59162e-14 0 0)
(-1.04237e-13 0 0)
(9.16596e-15 0 0)
(-4.79616e-14 0 0)
(-2.06768e-14 0 0)
(-6.35936e-14 0 0)
(-1.14753e-13 0 0)
(-5.35039e-14 0 0)
(-8.56914e-14 0 0)
(-8.34177e-14 0 0)
(-6.23857e-14 0 0)
(-8.36309e-14 0 0)
(-1.09708e-13 0 0)
(-6.51568e-14 0 0)
(-1.72662e-14 0 0)
(-6.6791e-14 0 0)
(-2.41585e-14 0 0)
(-1.98952e-14 0 0)
(-2.8777e-14 0 0)
(7.31859e-14 0 0)
(3.41771e-14 0 0)
(7.55307e-14 0 0)
(7.17648e-14 0 0)
(1.17737e-13 0 0)
(1.02176e-13 0 0)
(2.48691e-14 0 0)
(1.34079e-13 0 0)
(1.70957e-13 0 0)
(1.66125e-13 0 0)
(1.33014e-13 0 0)
(1.27045e-13 0 0)
(1.52411e-13 0 0)
(1.6982e-13 0 0)
(1.86304e-13 0 0)
(8.59757e-14 0 0)
(6.0254e-14 0 0)
(5.85487e-14 0 0)
(3.55982e-14 0 0)
(1.32161e-14 0 0)
(6.07514e-14 0 0)
(6.87095e-14 0 0)
(-1.85451e-14 0 0)
(1.91136e-14 0 0)
(3.83694e-15 0 0)
(3.36797e-14 0 0)
(-5.04486e-15 0 0)
(-4.3272e-14 0 0)
(3.17613e-14 0 0)
(1.02318e-14 0 0)
(4.12825e-14 0 0)
(-1.21503e-14 0 0)
(2.07478e-14 0 0)
(9.37916e-15 0 0)
(-1.3074e-14 0 0)
(3.02691e-14 0 0)
(2.01794e-14 0 0)
(3.56692e-14 0 0)
(9.37917e-15 0 0)
(-1.49924e-14 0 0)
(2.72138e-14 0 0)
(4.19222e-15 0 0)
(-1.45661e-14 0 0)
(-1.64846e-14 0 0)
(-9.80549e-14 0 0)
(-3.7943e-14 0 0)
(-1.10631e-13 0 0)
(-7.76623e-14 0 0)
(-9.48574e-14 0 0)
(-9.96891e-14 0 0)
(-2.20269e-14 0 0)
(-6.18883e-14 0 0)
(-6.30251e-14 0 0)
(-5.52802e-14 0 0)
(-6.08225e-14 0 0)
(-6.64357e-14 0 0)
(-2.81375e-14 0 0)
(-1.0516e-14 0 0)
(8.10729e-14 0 0)
(4.34142e-14 0 0)
(3.0127e-14 0 0)
(9.15889e-14 0 0)
(1.33014e-13 0 0)
(1.10489e-13 0 0)
(2.0826e-13 0 0)
(8.08598e-14 0 0)
(7.70229e-14 0 0)
(1.35785e-13 0 0)
(7.76623e-14 0 0)
(1.42535e-13 0 0)
(7.11253e-14 0 0)
(1.31735e-13 0 0)
(5.86198e-14 0 0)
(1.17382e-13 0 0)
(2.51532e-14 0 0)
(8.04334e-14 0 0)
(6.48015e-14 0 0)
(1.38201e-13 0 0)
(1.10205e-13 0 0)
(-3.71613e-14 0 0)
(3.10507e-14 0 0)
(-8.05755e-14 0 0)
(-1.06582e-14 0 0)
(-4.20641e-14 0 0)
(-3.3964e-14 0 0)
(-3.23297e-14 0 0)
(-9.37915e-15 0 0)
(8.73965e-15 0 0)
(-8.40572e-14 0 0)
(-9.96891e-14 0 0)
(-1.03739e-13 0 0)
(-8.5123e-14 0 0)
(-1.13758e-13 0 0)
(-6.1462e-14 0 0)
(-3.65219e-14 0 0)
(-7.41096e-14 0 0)
(-3.37508e-14 0 0)
(-6.13909e-14 0 0)
(1.12976e-14 0 0)
(-4.52616e-14 0 0)
(8.29203e-14 0 0)
(4.13536e-14 0 0)
(9.59233e-14 0 0)
(9.09495e-14 0 0)
(1.39551e-13 0 0)
(7.57439e-14 0 0)
(6.47304e-14 0 0)
(1.13829e-13 0 0)
(4.86012e-14 0 0)
(1.58238e-13 0 0)
(1.22213e-13 0 0)
(1.16813e-13 0 0)
(4.9738e-14 0 0)
(5.59197e-14 0 0)
(8.19256e-14 0 0)
(9.15179e-14 0 0)
(2.20269e-14 0 0)
(9.68469e-14 0 0)
(-1.64846e-14 0 0)
(1.03029e-14 0 0)
(-1.71951e-14 0 0)
(3.09086e-14 0 0)
(1.85451e-14 0 0)
(-3.46034e-14 0 0)
(1.0516e-14 0 0)
(-6.1604e-14 0 0)
(4.63274e-14 0 0)
(4.54748e-15 0 0)
(-3.75877e-14 0 0)
(3.32534e-14 0 0)
(-2.86348e-14 0 0)
(-1.87583e-14 0 0)
(-2.73559e-14 0 0)
(-2.92033e-14 0 0)
(-4.53326e-14 0 0)
(-4.34852e-14 0 0)
(-4.00036e-14 0 0)
(-1.18305e-13 0 0)
(-1.19869e-13 0 0)
(-8.45546e-14 0 0)
(-9.93339e-14 0 0)
(-1.22355e-13 0 0)
(-3.70903e-14 0 0)
(-7.70939e-14 0 0)
(-4.7109e-14 0 0)
(-1.32516e-13 0 0)
(-1.32161e-13 0 0)
(-1.21574e-13 0 0)
(-1.53761e-13 0 0)
(-1.17168e-13 0 0)
(-9.20153e-14 0 0)
(-8.00071e-14 0 0)
(-1.53832e-13 0 0)
(-3.36798e-14 0 0)
(-1.48788e-13 0 0)
(-9.57812e-14 0 0)
(-3.19034e-14 0 0)
(-8.36309e-14 0 0)
(-1.01181e-13 0 0)
(-1.75291e-13 0 0)
(-1.06866e-13 0 0)
(-1.33298e-13 0 0)
(-8.22098e-14 0 0)
(-5.94014e-14 0 0)
(-6.74305e-14 0 0)
(-9.41469e-14 0 0)
(-6.65778e-14 0 0)
(-5.65592e-14 0 0)
(-1.27898e-14 0 0)
(-1.9611e-14 0 0)
(2.34479e-15 0 0)
(3.70903e-14 0 0)
(4.21352e-14 0 0)
(9.62075e-14 0 0)
(8.49099e-14 0 0)
(1.42961e-13 0 0)
(1.35358e-13 0 0)
(1.51843e-13 0 0)
(1.39195e-13 0 0)
(1.39693e-13 0 0)
(1.88862e-13 0 0)
(9.25837e-14 0 0)
(5.79092e-14 0 0)
(1.03881e-13 0 0)
(2.77112e-14 0 0)
(1.76214e-14 0 0)
(-6.59383e-14 0 0)
(-5.20117e-14 0 0)
(-5.40012e-14 0 0)
(-5.55644e-14 0 0)
(-5.66303e-14 0 0)
(-3.2756e-14 0 0)
(-2.27374e-14 0 0)
(1.29318e-14 0 0)
(-6.63647e-14 0 0)
(-7.92965e-14 0 0)
(-5.57776e-14 0 0)
(-1.77636e-13 0 0)
(-7.90124e-14 0 0)
(-7.17649e-14 0 0)
(-7.56728e-14 0 0)
(-5.1017e-14 0 0)
(-2.60769e-14 0 0)
(-1.76215e-14 0 0)
(2.89191e-14 0 0)
(3.33244e-14 0 0)
(2.38032e-14 0 0)
(2.66454e-14 0 0)
(2.50111e-14 0 0)
(3.75877e-14 0 0)
(-1.7053e-14 0 0)
(-5.18696e-15 0 0)
(-3.37508e-14 0 0)
(6.18882e-14 0 0)
(2.04636e-14 0 0)
(1.60583e-14 0 0)
(2.3519e-14 0 0)
(1.19371e-14 0 0)
(2.06768e-14 0 0)
(-8.3773e-14 0 0)
(-6.672e-14 0 0)
(-1.05445e-13 0 0)
(-4.46221e-14 0 0)
(-4.93827e-14 0 0)
(-2.88481e-14 0 0)
(-3.05533e-14 0 0)
(-9.57101e-14 0 0)
(-9.23739e-16 0 0)
(-3.1477e-14 0 0)
(-8.35598e-14 0 0)
(2.60769e-14 0 0)
(-1.16529e-14 0 0)
(2.21689e-14 0 0)
(-1.76925e-14 0 0)
(1.56317e-15 0 0)
(1.63425e-15 0 0)
(6.46592e-15 0 0)
(-3.4106e-14 0 0)
(-1.52056e-14 0 0)
(6.56541e-14 0 0)
(9.91207e-14 0 0)
(1.36779e-13 0 0)
(5.95435e-14 0 0)
(1.10347e-13 0 0)
(7.05569e-14 0 0)
(5.40723e-14 0 0)
(4.66116e-14 0 0)
(1.67688e-14 0 0)
(3.73035e-14 0 0)
(3.44613e-14 0 0)
(3.07665e-14 0 0)
(7.43228e-14 0 0)
(6.38778e-14 0 0)
(1.17879e-13 0 0)
(4.00746e-14 0 0)
(6.8141e-14 0 0)
(9.08074e-14 0 0)
(1.09353e-13 0 0)
(9.87654e-14 0 0)
(7.80176e-14 0 0)
(2.66453e-14 0 0)
(-5.81934e-14 0 0)
(-2.49401e-14 0 0)
(-1.47367e-13 0 0)
(-5.40013e-14 0 0)
(-7.56728e-14 0 0)
(-7.12674e-14 0 0)
(-1.07789e-13 0 0)
(-7.44649e-14 0 0)
(-3.34666e-14 0 0)
(-1.06368e-13 0 0)
(-8.00072e-14 0 0)
(-4.61142e-14 0 0)
(-4.8459e-14 0 0)
(-1.04023e-13 0 0)
(-1.27898e-14 0 0)
(-6.13198e-14 0 0)
(-2.32348e-14 0 0)
(-1.20082e-14 0 0)
(2.34479e-14 0 0)
(7.38964e-15 0 0)
(2.53664e-14 0 0)
(8.81072e-15 0 0)
(-1.27187e-14 0 0)
(2.15294e-14 0 0)
(-5.64881e-14 0 0)
(-2.55795e-14 0 0)
(-7.08411e-14 0 0)
(-7.75202e-14 0 0)
(4.11404e-14 0 0)
(4.30589e-14 0 0)
(3.5314e-14 0 0)
(8.17835e-14 0 0)
(8.44835e-14 0 0)
(2.7498e-14 0 0)
(-1.81188e-14 0 0)
(-4.718e-14 0 0)
(8.59758e-15 0 0)
(1.99663e-14 0 0)
(5.62039e-14 0 0)
(4.59011e-14 0 0)
(1.29319e-14 0 0)
(2.7427e-14 0 0)
(5.96856e-14 0 0)
(3.09086e-14 0 0)
(-4.39115e-14 0 0)
(5.08748e-14 0 0)
(-2.79243e-14 0 0)
(-4.14957e-14 0 0)
(-8.50519e-14 0 0)
(1.74793e-14 0 0)
(2.02504e-14 0 0)
(-7.9936e-14 0 0)
(-2.84928e-14 0 0)
(-6.5441e-14 0 0)
(-5.54227e-15 0 0)
(-9.67049e-14 0 0)
(-1.10418e-13 0 0)
(-1.22071e-13 0 0)
(-1.72875e-13 0 0)
(-3.10508e-14 0 0)
(-4.56168e-14 0 0)
(-7.40385e-14 0 0)
(4.12825e-14 0 0)
(2.0961e-14 0 0)
(-4.24904e-14 0 0)
(3.48166e-14 0 0)
(5.3717e-14 0 0)
(1.05445e-13 0 0)
(8.28493e-14 0 0)
(1.03881e-13 0 0)
(1.34293e-14 0 0)
(1.63427e-15 0 0)
(7.38254e-14 0 0)
(3.9222e-14 0 0)
(2.83506e-14 0 0)
(-1.4424e-14 0 0)
(9.59233e-15 0 0)
(1.68399e-14 0 0)
(3.2756e-14 0 0)
(8.65441e-14 0 0)
(3.46745e-14 0 0)
(-5.56355e-14 0 0)
(-4.82458e-14 0 0)
(1.3074e-14 0 0)
(1.64846e-14 0 0)
(5.35039e-14 0 0)
(4.00036e-14 0 0)
(4.77485e-14 0 0)
(-3.38219e-14 0 0)
(-8.9102e-14 0 0)
(-4.48352e-14 0 0)
(2.93454e-14 0 0)
(-3.96483e-14 0 0)
(-4.9738e-15 0 0)
(3.85114e-14 0 0)
(-1.29319e-14 0 0)
(3.46745e-14 0 0)
(-4.51194e-14 0 0)
(4.54747e-14 0 0)
(2.41584e-14 0 0)
(7.10647e-17 0 0)
(-2.18847e-14 0 0)
(7.81595e-15 0 0)
(3.05534e-14 0 0)
(8.12861e-14 0 0)
(3.11218e-14 0 0)
(-2.69295e-14 0 0)
(5.91171e-14 0 0)
(9.6634e-15 0 0)
(7.28306e-14 0 0)
(5.98988e-14 0 0)
(6.31673e-14 0 0)
(1.8332e-13 0 0)
(1.031e-13 0 0)
(1.27969e-13 0 0)
(1.23137e-13 0 0)
(2.32348e-14 0 0)
(8.19256e-14 0 0)
(-4.81747e-14 0 0)
(3.78008e-14 0 0)
(3.91509e-14 0 0)
(2.0961e-14 0 0)
(5.82646e-15 0 0)
(2.99138e-14 0 0)
(1.7053e-14 0 0)
(-7.02016e-14 0 0)
(5.74118e-14 0 0)
(-2.28084e-14 0 0)
(1.27187e-14 0 0)
(2.97717e-14 0 0)
(7.24753e-14 0 0)
(3.30403e-14 0 0)
(4.68958e-14 0 0)
(1.14753e-13 0 0)
(-2.52953e-14 0 0)
(1.07576e-13 0 0)
(1.75504e-14 0 0)
(5.12301e-14 0 0)
(1.51346e-14 0 0)
(-1.17239e-14 0 0)
(4.80327e-14 0 0)
(6.85674e-14 0 0)
(6.47304e-14 0 0)
(3.3964e-14 0 0)
(-1.28608e-14 0 0)
(2.50821e-14 0 0)
(-5.02354e-14 0 0)
(-1.13118e-13 0 0)
(-9.61365e-14 0 0)
(-1.21432e-13 0 0)
(-6.57252e-14 0 0)
(-1.39195e-13 0 0)
(-2.76402e-14 0 0)
(-1.12266e-13 0 0)
(-6.13909e-14 0 0)
(-2.86349e-14 0 0)
(-2.33768e-14 0 0)
(-3.16192e-14 0 0)
(-5.96856e-14 0 0)
(-2.63611e-14 0 0)
(-5.60618e-14 0 0)
(-9.09495e-14 0 0)
(1.27892e-15 0 0)
(-3.7943e-14 0 0)
(-8.60467e-14 0 0)
(-6.21014e-14 0 0)
(-8.05045e-14 0 0)
(-6.73595e-14 0 0)
(-1.29319e-13 0 0)
(-2.57928e-14 0 0)
(-1.08997e-13 0 0)
(-5.79093e-14 0 0)
(-1.18447e-13 0 0)
(-1.52909e-13 0 0)
(-1.48432e-13 0 0)
(-1.71667e-13 0 0)
(-5.8833e-14 0 0)
(-2.16716e-14 0 0)
(-4.39826e-14 0 0)
(-8.52651e-14 0 0)
(-1.77638e-15 0 0)
(-8.56914e-14 0 0)
(-1.20082e-14 0 0)
(-5.74829e-14 0 0)
(-9.05942e-14 0 0)
(4.00746e-14 0 0)
(3.57403e-14 0 0)
(1.53335e-13 0 0)
(1.66196e-13 0 0)
(1.35927e-13 0 0)
(1.71241e-13 0 0)
(1.29816e-13 0 0)
(1.24203e-13 0 0)
(7.51044e-14 0 0)
(3.54561e-14 0 0)
(-1.1795e-14 0 0)
(-2.58637e-14 0 0)
(-2.78532e-14 0 0)
(6.86384e-14 0 0)
(6.96332e-14 0 0)
(2.70007e-14 0 0)
(1.21148e-13 0 0)
(1.57172e-13 0 0)
(1.13261e-13 0 0)
(7.91545e-14 0 0)
(1.48077e-13 0 0)
(9.59233e-14 0 0)
(5.57776e-14 0 0)
(8.22808e-14 0 0)
(-1.91846e-15 0 0)
(-2.97717e-14 0 0)
(-5.88329e-14 0 0)
(-4.15668e-14 0 0)
(-9.35785e-14 0 0)
(-4.19931e-14 0 0)
(-4.12825e-14 0 0)
(2.2311e-14 0 0)
(2.39453e-14 0 0)
(-4.27747e-14 0 0)
(-3.55272e-14 0 0)
(-9.78417e-14 0 0)
(-1.15179e-13 0 0)
(-9.84813e-14 0 0)
(-1.19229e-13 0 0)
(-8.5052e-14 0 0)
(-9.36496e-14 0 0)
(-1.57527e-13 0 0)
(-6.24567e-14 0 0)
(-1.30598e-13 0 0)
(-1.49925e-13 0 0)
(-1.43885e-13 0 0)
(-1.59162e-13 0 0)
(-1.96536e-13 0 0)
(-1.47367e-13 0 0)
(-2.31992e-13 0 0)
(-1.12408e-13 0 0)
(-2.02647e-13 0 0)
(-1.54685e-13 0 0)
(-9.97602e-14 0 0)
(-1.30527e-13 0 0)
(-4.54752e-15 0 0)
(-9.08784e-14 0 0)
(-6.03251e-14 0 0)
(-1.22427e-13 0 0)
(-9.23706e-14 0 0)
(-1.3479e-13 0 0)
(-1.29532e-13 0 0)
(-7.86571e-14 0 0)
(-1.3344e-13 0 0)
(-1.83746e-13 0 0)
(-1.75078e-13 0 0)
(-7.95097e-14 0 0)
(-6.30252e-14 0 0)
(-3.81561e-14 0 0)
(-3.58824e-14 0 0)
(1.08358e-13 0 0)
(6.96338e-15 0 0)
(1.20011e-13 0 0)
(1.02034e-13 0 0)
(1.10632e-13 0 0)
(1.52411e-13 0 0)
(4.07142e-14 0 0)
(1.53193e-13 0 0)
(1.4289e-13 0 0)
(2.0151e-13 0 0)
(1.50706e-13 0 0)
(1.43174e-13 0 0)
(1.4623e-13 0 0)
(1.6243e-13 0 0)
(1.26192e-13 0 0)
(1.0516e-13 0 0)
(8.01492e-14 0 0)
(7.14806e-14 0 0)
(7.96518e-14 0 0)
(1.52767e-14 0 0)
(5.1017e-14 0 0)
(8.46967e-14 0 0)
(7.11253e-14 0 0)
(1.11982e-13 0 0)
(-5.89746e-15 0 0)
(6.23146e-14 0 0)
(-5.87619e-14 0 0)
(-9.00968e-14 0 0)
(-1.22782e-13 0 0)
(-1.15463e-13 0 0)
(-9.87654e-14 0 0)
(-5.85487e-14 0 0)
(-1.39267e-14 0 0)
(-8.24229e-14 0 0)
(-6.35225e-14 0 0)
(-6.48015e-14 0 0)
(-4.73222e-14 0 0)
(-7.8515e-14 0 0)
(-7.68097e-14 0 0)
(-7.18359e-14 0 0)
(-6.01119e-14 0 0)
(-2.48691e-15 0 0)
(-3.73745e-14 0 0)
(-1.37845e-14 0 0)
(-5.01643e-14 0 0)
(-4.68958e-14 0 0)
(-8.92442e-14 0 0)
(-1.67333e-13 0 0)
(-1.06368e-13 0 0)
(-1.01679e-13 0 0)
(-8.42704e-14 0 0)
(-1.27969e-13 0 0)
(-7.73071e-14 0 0)
(-6.78568e-14 0 0)
(-3.96483e-14 0 0)
(-5.3291e-15 0 0)
(-4.3272e-14 0 0)
(-6.91358e-14 0 0)
(5.61328e-14 0 0)
(-5.33617e-14 0 0)
(-1.8332e-14 0 0)
(-7.61702e-14 0 0)
(-5.59197e-14 0 0)
(-1.36424e-14 0 0)
(-2.87059e-14 0 0)
(-1.47083e-14 0 0)
(-1.79767e-14 0 0)
(1.47793e-14 0 0)
(1.76215e-14 0 0)
(5.94014e-14 0 0)
(-2.57216e-14 0 0)
(7.65964e-14 0 0)
(-5.25801e-14 0 0)
(-4.07852e-14 0 0)
(-2.94165e-14 0 0)
(3.24718e-14 0 0)
(2.62901e-14 0 0)
(4.86011e-14 0 0)
(1.39977e-14 0 0)
(-5.1088e-14 0 0)
(-1.78346e-14 0 0)
(-8.42703e-14 0 0)
(-4.16378e-14 0 0)
(-5.41434e-14 0 0)
(-8.33467e-14 0 0)
(-7.57439e-14 0 0)
(-1.09424e-13 0 0)
(-1.11626e-13 0 0)
(-8.79652e-14 0 0)
(-1.23066e-13 0 0)
(-5.79093e-14 0 0)
(-6.04672e-14 0 0)
(1.17239e-14 0 0)
(-4.43378e-14 0 0)
(-5.96145e-14 0 0)
(-1.74083e-14 0 0)
(-5.48539e-14 0 0)
(-3.16192e-14 0 0)
(-5.99698e-14 0 0)
(-3.19034e-14 0 0)
(-1.95399e-14 0 0)
(-9.37919e-15 0 0)
(-2.50821e-14 0 0)
(-4.6896e-15 0 0)
(-2.56506e-14 0 0)
(-8.86757e-14 0 0)
(-6.57963e-14 0 0)
(-1.32871e-13 0 0)
(-1.49925e-14 0 0)
(-9.32232e-14 0 0)
(-5.95435e-14 0 0)
(-8.78942e-14 0 0)
(-1.29035e-13 0 0)
(-8.60467e-14 0 0)
(-9.84813e-14 0 0)
(-1.03313e-13 0 0)
(-8.32046e-14 0 0)
(-1.34861e-13 0 0)
(-1.55111e-13 0 0)
(-1.58025e-13 0 0)
(-2.67306e-13 0 0)
(-1.18803e-13 0 0)
(-2.37108e-13 0 0)
(-2.78817e-13 0 0)
(-1.90568e-13 0 0)
(-2.67875e-13 0 0)
(-2.8983e-13 0 0)
(-2.76827e-13 0 0)
(-3.34666e-13 0 0)
(-2.74056e-13 0 0)
(-2.37392e-13 0 0)
(-1.95115e-13 0 0)
(-2.37108e-13 0 0)
(-1.86091e-13 0 0)
(-2.09184e-13 0 0)
(-1.93126e-13 0 0)
(-1.71596e-13 0 0)
(-2.43787e-13 0 0)
(-1.88578e-13 0 0)
(-1.96536e-13 0 0)
(-7.93677e-14 0 0)
(-9.46443e-14 0 0)
(-3.06955e-14 0 0)
(-1.25766e-14 0 0)
(1.86163e-14 0 0)
(5.25802e-13 0 0)
(1.64029e-12 0 0)
(5.02389e-12 0 0)
(1.44833e-11 0 0)
(4.13429e-11 0 0)
(1.16212e-10 0 0)
(3.21264e-10 0 0)
(8.74541e-10 0 0)
(2.3424e-09 0 0)
(6.17195e-09 0 0)
(1.59888e-08 0 0)
(4.07042e-08 0 0)
(1.0178e-07 0 0)
(2.49833e-07 0 0)
(6.01662e-07 0 0)
(1.42074e-06 0 0)
(3.28752e-06 0 0)
(7.44955e-06 0 0)
(1.65199e-05 0 0)
(3.5826e-05 0 0)
(7.59246e-05 0 0)
(0.000157121 0 0)
(0.000317262 0 0)
(0.000624583 0 0)
(0.00119786 0 0)
(0.00223628 0 0)
(0.00406085 0 0)
(0.00716755 0 0)
(0.0122889 0 0)
(0.0204559 0 0)
(0.0330468 0 0)
(0.0518047 0 0)
(0.0788079 0 0)
(0.116381 0 0)
(0.166951 0 0)
(0.232874 0 0)
(0.316266 0 0)
(0.418881 0 0)
(0.542057 0 0)
(0.686754 0 0)
(0.853624 0 0)
(1.04311 0 0)
(1.25552 0 0)
(1.4911 0 0)
(1.75003 0 0)
(2.03249 0 0)
(2.33862 0 0)
(2.66858 0 0)
(3.0225 0 0)
(3.40051 0 0)
(3.80274 0 0)
(4.22932 0 0)
(4.68036 0 0)
(5.15603 0 0)
(5.65624 0 0)
(6.18193 0 0)
(6.72981 0 0)
(7.31236 0 0)
(7.88716 0 0)
(8.58095 0 0)
(9.02195 0 0)
(10.2428 0 0)
)
;

boundaryField
{
    sideLeft
    {
        type            symmetryPlane;
    }
    sideRight
    {
        type            calculated;
        value           uniform (9.97951 0 0);
    }
    topbottom
    {
        type            empty;
    }
    frontback
    {
        type            empty;
    }
}


// ************************************************************************* //
