/*--------------------------------*- C++ -*----------------------------------*\
| =========                 |                                                 |
| \\      /  F ield         | OpenFOAM: The Open Source CFD Toolbox           |
|  \\    /   O peration     | Version:  2.4.0                                 |
|   \\  /    A nd           | Web:      www.OpenFOAM.org                      |
|    \\/     M anipulation  |                                                 |
\*---------------------------------------------------------------------------*/
FoamFile
{
    version     2.0;
    format      ascii;
    class       volVectorField;
    location    "0.01";
    object      U.air;
}
// * * * * * * * * * * * * * * * * * * * * * * * * * * * * * * * * * * * * * //

dimensions      [0 1 -1 0 0 0 0];

internalField   nonuniform List<vector> 
1000
(
(-1.27898e-13 0 0)
(-9.9476e-14 0 0)
(-5.68434e-14 0 0)
(-9.9476e-14 0 0)
(-2.13163e-13 0 0)
(-7.10547e-15 0 0)
(-3.55271e-14 0 0)
(-1.49214e-13 0 0)
(-2.13163e-13 0 0)
(-1.77636e-13 0 0)
(-3.41061e-13 0 0)
(-6.18172e-13 0 0)
(-3.48166e-13 0 0)
(-1.42108e-14 0 0)
(-5.26203e-21 0 0)
(7.81597e-14 0 0)
(2.91323e-13 0 0)
(1.84741e-13 0 0)
(-7.10545e-15 0 0)
(1.42109e-14 0 0)
(7.10542e-14 0 0)
(-2.06057e-13 0 0)
(-9.9476e-14 0 0)
(1.42109e-14 0 0)
(2.13163e-13 0 0)
(1.13687e-13 0 0)
(2.20268e-13 0 0)
(2.06057e-13 0 0)
(1.42109e-14 0 0)
(-2.13164e-14 0 0)
(-2.13163e-13 0 0)
(1.63425e-13 0 0)
(1.63425e-13 0 0)
(2.20268e-13 0 0)
(3.69482e-13 0 0)
(-1.7053e-13 0 0)
(-7.81597e-14 0 0)
(-1.49214e-13 0 0)
(7.81597e-14 0 0)
(1.20792e-13 0 0)
(-4.97381e-14 0 0)
(2.13164e-14 0 0)
(-9.23706e-14 0 0)
(-2.4869e-13 0 0)
(-7.81597e-14 0 0)
(-2.4869e-13 0 0)
(-3.83693e-13 0 0)
(-9.9476e-14 0 0)
(-1.7053e-13 0 0)
(-1.91847e-13 0 0)
(-2.70006e-13 0 0)
(-3.48166e-13 0 0)
(-3.33955e-13 0 0)
(-5.68435e-14 0 0)
(-5.68434e-14 0 0)
(-6.39489e-14 0 0)
(-5.68434e-14 0 0)
(1.13687e-13 0 0)
(7.10543e-14 0 0)
(1.06581e-13 0 0)
(2.55795e-13 0 0)
(7.81597e-14 0 0)
(1.42109e-13 0 0)
(3.12639e-13 0 0)
(6.96332e-13 0 0)
(1.07292e-12 0 0)
(1.20792e-12 0 0)
(1.10134e-12 0 0)
(9.37916e-13 0 0)
(7.03437e-13 0 0)
(6.3949e-14 0 0)
(7.81596e-14 0 0)
(9.94761e-14 0 0)
(1.84741e-13 0 0)
(2.20268e-13 0 0)
(7.10553e-15 0 0)
(3.2685e-13 0 0)
(2.77112e-13 0 0)
(3.12639e-13 0 0)
(3.05533e-13 0 0)
(1.20792e-13 0 0)
(7.10537e-15 0 0)
(-1.84741e-13 0 0)
(-2.77112e-13 0 0)
(-3.76588e-13 0 0)
(-5.96856e-13 0 0)
(-7.10543e-13 0 0)
(-6.6791e-13 0 0)
(-9.73444e-13 0 0)
(-1.03739e-12 0 0)
(-7.67386e-13 0 0)
(-4.9738e-13 0 0)
(-4.54747e-13 0 0)
(-4.9738e-13 0 0)
(-3.12639e-13 0 0)
(-1.06581e-13 0 0)
(1.42109e-14 0 0)
(2.06057e-13 0 0)
(1.42109e-13 0 0)
(2.06057e-13 0 0)
(2.77112e-13 0 0)
(1.13687e-13 0 0)
(2.13163e-14 0 0)
(9.23705e-14 0 0)
(-2.34479e-13 0 0)
(7.10548e-15 0 0)
(3.2685e-13 0 0)
(-1.77636e-13 0 0)
(-1.7053e-13 0 0)
(-1.56319e-13 0 0)
(-4.26326e-14 0 0)
(1.63425e-13 0 0)
(-1.63425e-13 0 0)
(-2.06057e-13 0 0)
(-2.62901e-13 0 0)
(-9.23705e-14 0 0)
(1.63425e-13 0 0)
(-6.39488e-14 0 0)
(1.56319e-13 0 0)
(3.48166e-13 0 0)
(3.2685e-13 0 0)
(1.98952e-13 0 0)
(1.35003e-13 0 0)
(-4.26325e-14 0 0)
(-3.33955e-13 0 0)
(-1.98952e-13 0 0)
(-1.20792e-13 0 0)
(-1.13687e-13 0 0)
(-7.10543e-14 0 0)
(-3.19744e-13 0 0)
(-4.54747e-13 0 0)
(-4.40537e-13 0 0)
(4.9738e-14 0 0)
(2.84217e-13 0 0)
(4.26326e-14 0 0)
(1.06581e-13 0 0)
(2.62901e-13 0 0)
(1.98952e-13 0 0)
(4.1922e-13 0 0)
(5.04485e-13 0 0)
(4.83169e-13 0 0)
(3.48166e-13 0 0)
(1.84741e-13 0 0)
(2.13163e-13 0 0)
(4.97381e-14 0 0)
(7.10536e-15 0 0)
(-1.13687e-13 0 0)
(-2.77112e-13 0 0)
(-1.42109e-13 0 0)
(-2.13163e-14 0 0)
(-2.20268e-13 0 0)
(7.10538e-15 0 0)
(1.27898e-13 0 0)
(1.63425e-13 0 0)
(2.13163e-14 0 0)
(-2.91323e-13 0 0)
(-1.27898e-13 0 0)
(-2.84217e-14 0 0)
(-7.10543e-14 0 0)
(-1.20792e-13 0 0)
(7.10545e-15 0 0)
(1.91847e-13 0 0)
(-1.13687e-13 0 0)
(-1.56319e-13 0 0)
(-1.20792e-13 0 0)
(-3.19744e-13 0 0)
(1.84741e-13 0 0)
(3.12639e-13 0 0)
(2.06057e-13 0 0)
(5.68434e-14 0 0)
(9.23705e-14 0 0)
(9.9476e-14 0 0)
(-2.06057e-13 0 0)
(-2.13163e-13 0 0)
(-3.19744e-13 0 0)
(-4.1922e-13 0 0)
(-3.62377e-13 0 0)
(2.84216e-14 0 0)
(-1.77636e-13 0 0)
(-3.12639e-13 0 0)
(-3.12639e-13 0 0)
(-2.55795e-13 0 0)
(-2.34479e-13 0 0)
(-2.70006e-13 0 0)
(-4.1922e-13 0 0)
(-3.90798e-13 0 0)
(1.7053e-13 0 0)
(3.41061e-13 0 0)
(7.60281e-13 0 0)
(7.17648e-13 0 0)
(5.8975e-13 0 0)
(8.52652e-14 0 0)
(-1.56319e-13 0 0)
(-2.20268e-13 0 0)
(-1.42109e-13 0 0)
(3.55271e-14 0 0)
(3.55272e-14 0 0)
(-2.13164e-14 0 0)
(-4.1922e-13 0 0)
(-5.18696e-13 0 0)
(-4.40537e-13 0 0)
(-9.23705e-14 0 0)
(9.23706e-14 0 0)
(1.56319e-13 0 0)
(-2.84217e-14 0 0)
(-2.77112e-13 0 0)
(-3.69482e-13 0 0)
(-2.27374e-13 0 0)
(-3.55271e-14 0 0)
(7.10539e-15 0 0)
(4.9738e-14 0 0)
(3.55272e-14 0 0)
(4.47642e-13 0 0)
(5.32907e-13 0 0)
(6.03961e-13 0 0)
(6.96332e-13 0 0)
(5.7554e-13 0 0)
(3.97904e-13 0 0)
(1.98952e-13 0 0)
(4.90274e-13 0 0)
(6.03961e-13 0 0)
(4.26326e-13 0 0)
(3.55271e-14 0 0)
(-1.13687e-13 0 0)
(-2.19147e-20 0 0)
(-1.27898e-13 0 0)
(-9.9476e-14 0 0)
(2.13163e-14 0 0)
(-6.56654e-20 0 0)
(1.13687e-13 0 0)
(1.20792e-13 0 0)
(-7.10546e-15 0 0)
(-1.49214e-13 0 0)
(-3.55271e-13 0 0)
(-3.62377e-13 0 0)
(-9.94761e-14 0 0)
(-2.13163e-13 0 0)
(-1.42108e-14 0 0)
(2.84217e-14 0 0)
(4.26326e-14 0 0)
(-6.39489e-14 0 0)
(-4.90275e-13 0 0)
(-6.39488e-13 0 0)
(-4.33431e-13 0 0)
(-2.13163e-14 0 0)
(-2.13163e-13 0 0)
(-3.90799e-13 0 0)
(-3.62377e-13 0 0)
(-5.18696e-13 0 0)
(-2.06057e-13 0 0)
(-2.70006e-13 0 0)
(-2.62901e-13 0 0)
(-1.77636e-13 0 0)
(-1.84741e-13 0 0)
(-1.56319e-13 0 0)
(-4.97379e-14 0 0)
(2.4869e-13 0 0)
(7.10543e-14 0 0)
(-1.27898e-13 0 0)
(-1.91846e-13 0 0)
(2.13162e-14 0 0)
(-1.77636e-13 0 0)
(-2.27374e-13 0 0)
(-2.4869e-13 0 0)
(-4.26325e-14 0 0)
(2.84217e-14 0 0)
(-4.33431e-13 0 0)
(-6.03961e-13 0 0)
(-2.70006e-13 0 0)
(9.23706e-14 0 0)
(-2.13162e-14 0 0)
(-7.81597e-14 0 0)
(1.91846e-13 0 0)
(2.4869e-13 0 0)
(2.20268e-13 0 0)
(4.68958e-13 0 0)
(4.9738e-13 0 0)
(4.12115e-13 0 0)
(1.06581e-13 0 0)
(-1.42109e-14 0 0)
(-1.20792e-13 0 0)
(-7.10543e-14 0 0)
(-7.10543e-14 0 0)
(-1.42108e-13 0 0)
(1.20792e-13 0 0)
(2.70006e-13 0 0)
(4.1922e-13 0 0)
(2.84217e-13 0 0)
(2.55795e-13 0 0)
(4.26326e-14 0 0)
(-1.56319e-13 0 0)
(-2.62901e-13 0 0)
(-1.42108e-14 0 0)
(4.9738e-14 0 0)
(-1.84741e-13 0 0)
(4.26326e-14 0 0)
(7.81597e-14 0 0)
(2.98428e-13 0 0)
(1.49214e-13 0 0)
(1.35003e-13 0 0)
(4.26326e-13 0 0)
(7.10543e-14 0 0)
(-6.39489e-14 0 0)
(-1.13687e-13 0 0)
(1.06581e-13 0 0)
(6.39488e-13 0 0)
(4.68958e-13 0 0)
(6.32383e-13 0 0)
(6.75016e-13 0 0)
(5.25802e-13 0 0)
(3.48166e-13 0 0)
(3.12639e-13 0 0)
(3.83693e-13 0 0)
(1.84741e-13 0 0)
(-1.42109e-14 0 0)
(-4.40537e-13 0 0)
(-5.68434e-13 0 0)
(-2.91323e-13 0 0)
(1.13687e-13 0 0)
(9.9476e-14 0 0)
(-1.84741e-13 0 0)
(-3.83693e-13 0 0)
(-5.18696e-13 0 0)
(-6.60805e-13 0 0)
(-3.19744e-13 0 0)
(5.68434e-14 0 0)
(1.56319e-13 0 0)
(2.27374e-13 0 0)
(9.23706e-14 0 0)
(-5.68434e-14 0 0)
(-5.68434e-14 0 0)
(-1.7053e-13 0 0)
(-2.06057e-13 0 0)
(-9.9476e-14 0 0)
(1.63425e-13 0 0)
(4.12115e-13 0 0)
(2.13163e-14 0 0)
(2.20268e-13 0 0)
(2.34479e-13 0 0)
(1.56319e-13 0 0)
(2.20268e-13 0 0)
(-7.10555e-15 0 0)
(-2.84217e-13 0 0)
(-2.13163e-13 0 0)
(4.26325e-14 0 0)
(-8.52651e-14 0 0)
(9.23705e-14 0 0)
(1.98952e-13 0 0)
(3.12639e-13 0 0)
(-7.10538e-15 0 0)
(-2.13163e-13 0 0)
(-2.06057e-13 0 0)
(-1.91847e-13 0 0)
(-2.70006e-13 0 0)
(-4.26326e-14 0 0)
(-2.13164e-14 0 0)
(2.84218e-14 0 0)
(1.35003e-13 0 0)
(3.55272e-14 0 0)
(1.56319e-13 0 0)
(-7.1054e-15 0 0)
(1.27898e-13 0 0)
(2.24025e-20 0 0)
(6.39488e-14 0 0)
(2.34479e-13 0 0)
(3.69482e-13 0 0)
(6.46594e-13 0 0)
(4.47642e-13 0 0)
(2.77112e-13 0 0)
(2.55795e-13 0 0)
(1.13687e-13 0 0)
(3.55271e-14 0 0)
(1.84741e-13 0 0)
(2.27374e-13 0 0)
(1.42109e-13 0 0)
(1.35003e-13 0 0)
(-3.48166e-13 0 0)
(-2.70006e-13 0 0)
(-2.13163e-13 0 0)
(-9.23706e-14 0 0)
(-1.06581e-13 0 0)
(-2.13163e-14 0 0)
(-2.4869e-13 0 0)
(-4.54747e-13 0 0)
(-2.70006e-13 0 0)
(-2.13163e-13 0 0)
(1.42108e-14 0 0)
(5.68434e-14 0 0)
(3.4106e-13 0 0)
(4.1922e-13 0 0)
(5.40013e-13 0 0)
(3.83693e-13 0 0)
(1.84741e-13 0 0)
(3.05533e-13 0 0)
(2.98428e-13 0 0)
(8.52652e-14 0 0)
(2.84217e-14 0 0)
(-1.91847e-13 0 0)
(1.77636e-13 0 0)
(4.54747e-13 0 0)
(4.1922e-13 0 0)
(3.05533e-13 0 0)
(-2.34479e-13 0 0)
(-4.12115e-13 0 0)
(-7.24754e-13 0 0)
(-5.54223e-13 0 0)
(-1.06581e-13 0 0)
(7.10547e-15 0 0)
(-4.9738e-14 0 0)
(-3.19744e-13 0 0)
(-2.27374e-13 0 0)
(-1.98952e-13 0 0)
(-2.70006e-13 0 0)
(-4.1922e-13 0 0)
(-5.11591e-13 0 0)
(-3.55271e-13 0 0)
(-7.81597e-14 0 0)
(-7.10543e-14 0 0)
(-1.42108e-13 0 0)
(1.98952e-13 0 0)
(2.34479e-13 0 0)
(-7.10548e-15 0 0)
(-1.77636e-13 0 0)
(-4.59292e-22 0 0)
(2.84217e-13 0 0)
(2.4869e-13 0 0)
(2.13163e-14 0 0)
(-2.27374e-13 0 0)
(-4.33431e-13 0 0)
(-6.82121e-13 0 0)
(-5.25802e-13 0 0)
(-5.25802e-13 0 0)
(-3.55271e-13 0 0)
(-9.23706e-14 0 0)
(-1.27898e-13 0 0)
(-2.41585e-13 0 0)
(7.66317e-20 0 0)
(4.9738e-14 0 0)
(1.77636e-13 0 0)
(3.48166e-13 0 0)
(1.20792e-13 0 0)
(-1.20287e-20 0 0)
(-1.84741e-13 0 0)
(-2.06057e-13 0 0)
(-4.68958e-13 0 0)
(-3.62377e-13 0 0)
(-2.98428e-13 0 0)
(-1.56319e-13 0 0)
(4.26326e-14 0 0)
(1.77636e-13 0 0)
(-3.98546e-20 0 0)
(-1.06581e-13 0 0)
(4.9738e-14 0 0)
(8.52651e-14 0 0)
(2.84217e-14 0 0)
(-8.52651e-14 0 0)
(-1.42108e-14 0 0)
(3.55271e-14 0 0)
(1.27898e-13 0 0)
(1.49214e-13 0 0)
(3.2685e-13 0 0)
(3.19744e-13 0 0)
(1.20792e-13 0 0)
(-8.52651e-14 0 0)
(-9.9476e-14 0 0)
(-2.77112e-13 0 0)
(-3.41061e-13 0 0)
(-4.83169e-13 0 0)
(-3.90799e-13 0 0)
(-2.41585e-13 0 0)
(-3.97904e-13 0 0)
(-3.48166e-13 0 0)
(4.9738e-14 0 0)
(3.12639e-13 0 0)
(3.2685e-13 0 0)
(1.98952e-13 0 0)
(1.35003e-13 0 0)
(2.62901e-13 0 0)
(1.49214e-13 0 0)
(1.49214e-13 0 0)
(3.55272e-14 0 0)
(1.84741e-13 0 0)
(2.91322e-13 0 0)
(3.19744e-13 0 0)
(1.06581e-13 0 0)
(-1.06581e-13 0 0)
(2.13162e-14 0 0)
(-9.94759e-14 0 0)
(-3.05533e-13 0 0)
(-3.48166e-13 0 0)
(2.13163e-13 0 0)
(3.19744e-13 0 0)
(2.70006e-13 0 0)
(1.7053e-13 0 0)
(1.42109e-14 0 0)
(-1.98952e-13 0 0)
(-3.90798e-13 0 0)
(-3.76588e-13 0 0)
(-6.25278e-13 0 0)
(-3.62377e-13 0 0)
(-2.77112e-13 0 0)
(-3.19744e-13 0 0)
(-2.13163e-14 0 0)
(9.23707e-14 0 0)
(1.91846e-13 0 0)
(2.70006e-13 0 0)
(-1.77636e-13 0 0)
(-3.41061e-13 0 0)
(-2.55795e-13 0 0)
(-1.35003e-13 0 0)
(-7.81597e-14 0 0)
(2.84217e-14 0 0)
(-7.10544e-15 0 0)
(-3.97904e-13 0 0)
(-3.62377e-13 0 0)
(-1.13687e-13 0 0)
(1.42109e-13 0 0)
(1.27898e-13 0 0)
(2.13162e-14 0 0)
(4.33431e-13 0 0)
(4.12115e-13 0 0)
(2.13163e-14 0 0)
(-8.52651e-14 0 0)
(-4.9738e-14 0 0)
(-9.94759e-14 0 0)
(1.20792e-13 0 0)
(4.90274e-13 0 0)
(5.47118e-13 0 0)
(5.32907e-13 0 0)
(2.91323e-13 0 0)
(3.19744e-13 0 0)
(9.9476e-14 0 0)
(1.42109e-14 0 0)
(4.26326e-14 0 0)
(-7.10544e-15 0 0)
(4.9738e-14 0 0)
(1.20792e-13 0 0)
(2.41585e-13 0 0)
(3.62377e-13 0 0)
(2.77112e-13 0 0)
(4.97381e-14 0 0)
(8.52651e-14 0 0)
(-2.84217e-13 0 0)
(-2.98428e-13 0 0)
(-1.06581e-13 0 0)
(-1.13687e-13 0 0)
(-2.13163e-14 0 0)
(-2.41584e-13 0 0)
(-4.47642e-13 0 0)
(-8.52652e-14 0 0)
(7.10543e-14 0 0)
(-4.97379e-14 0 0)
(-2.55795e-13 0 0)
(-1.77636e-13 0 0)
(7.81597e-14 0 0)
(-1.56319e-13 0 0)
(-3.12639e-13 0 0)
(-2.77112e-13 0 0)
(-1.35003e-13 0 0)
(-1.20792e-13 0 0)
(-9.9476e-14 0 0)
(-7.10543e-14 0 0)
(-2.84217e-14 0 0)
(-4.26326e-14 0 0)
(-7.10542e-14 0 0)
(4.97381e-14 0 0)
(1.42108e-13 0 0)
(2.34479e-13 0 0)
(2.34479e-13 0 0)
(-4.26326e-14 0 0)
(-1.35003e-13 0 0)
(-4.26326e-14 0 0)
(-1.13687e-13 0 0)
(-1.49214e-13 0 0)
(1.35003e-13 0 0)
(2.70006e-13 0 0)
(4.90274e-13 0 0)
(4.05009e-13 0 0)
(2.91323e-13 0 0)
(-2.13163e-14 0 0)
(-2.77112e-13 0 0)
(-4.26326e-14 0 0)
(-9.94759e-14 0 0)
(-2.13164e-14 0 0)
(-7.81597e-14 0 0)
(-1.42109e-14 0 0)
(2.91323e-13 0 0)
(4.26326e-13 0 0)
(5.18696e-13 0 0)
(2.34479e-13 0 0)
(2.84217e-14 0 0)
(1.56319e-13 0 0)
(-7.10544e-14 0 0)
(-2.4869e-13 0 0)
(-3.48166e-13 0 0)
(-4.68958e-13 0 0)
(-3.83693e-13 0 0)
(-2.84217e-13 0 0)
(-3.41061e-13 0 0)
(-4.54747e-13 0 0)
(-5.04485e-13 0 0)
(-7.81597e-14 0 0)
(1.13687e-13 0 0)
(-9.23706e-14 0 0)
(-4.26325e-14 0 0)
(7.81597e-14 0 0)
(7.81597e-14 0 0)
(-1.42109e-14 0 0)
(-1.98952e-13 0 0)
(-8.52651e-14 0 0)
(1.49214e-13 0 0)
(2.91323e-13 0 0)
(2.34479e-13 0 0)
(4.26326e-14 0 0)
(-5.68434e-14 0 0)
(-8.52651e-14 0 0)
(-1.42109e-13 0 0)
(-4.26326e-14 0 0)
(2.13163e-14 0 0)
(-1.7053e-13 0 0)
(-1.20792e-13 0 0)
(3.33955e-13 0 0)
(3.62377e-13 0 0)
(3.90799e-13 0 0)
(3.97904e-13 0 0)
(2.34479e-13 0 0)
(6.39489e-14 0 0)
(4.26326e-14 0 0)
(-7.10543e-14 0 0)
(2.13162e-14 0 0)
(-1.42108e-14 0 0)
(-1.98952e-13 0 0)
(-2.77112e-13 0 0)
(-2.55795e-13 0 0)
(6.39488e-14 0 0)
(9.46665e-20 0 0)
(2.98428e-13 0 0)
(1.63425e-13 0 0)
(2.27374e-13 0 0)
(3.69482e-13 0 0)
(2.84217e-13 0 0)
(3.41061e-13 0 0)
(2.20268e-13 0 0)
(9.23705e-14 0 0)
(4.97381e-14 0 0)
(1.49214e-13 0 0)
(4.33431e-13 0 0)
(2.20268e-13 0 0)
(1.42109e-14 0 0)
(2.91323e-13 0 0)
(2.06057e-13 0 0)
(2.84218e-14 0 0)
(2.84217e-14 0 0)
(-1.13687e-13 0 0)
(-1.7053e-13 0 0)
(7.10534e-15 0 0)
(-1.20792e-13 0 0)
(2.27374e-13 0 0)
(4.54747e-13 0 0)
(3.69482e-13 0 0)
(3.05533e-13 0 0)
(4.76064e-13 0 0)
(3.2685e-13 0 0)
(5.68435e-14 0 0)
(3.62377e-13 0 0)
(2.13163e-13 0 0)
(1.06581e-13 0 0)
(1.98952e-13 0 0)
(4.12115e-13 0 0)
(3.12639e-13 0 0)
(-1.06581e-13 0 0)
(-8.52652e-14 0 0)
(5.68436e-14 0 0)
(3.05533e-13 0 0)
(1.77636e-13 0 0)
(-2.20268e-13 0 0)
(-5.7554e-13 0 0)
(-4.83169e-13 0 0)
(-2.91323e-13 0 0)
(-4.9738e-14 0 0)
(-1.77636e-13 0 0)
(-3.90799e-13 0 0)
(-5.04485e-13 0 0)
(-5.25802e-13 0 0)
(-5.96856e-13 0 0)
(-6.18172e-13 0 0)
(-5.40013e-13 0 0)
(-4.1922e-13 0 0)
(-1.63425e-13 0 0)
(-1.06581e-13 0 0)
(2.84217e-13 0 0)
(-2.84216e-14 0 0)
(-1.63425e-13 0 0)
(-6.39489e-14 0 0)
(-3.55271e-14 0 0)
(-2.84217e-14 0 0)
(5.68435e-14 0 0)
(-2.77112e-13 0 0)
(-5.7554e-13 0 0)
(-2.70006e-13 0 0)
(1.84741e-13 0 0)
(3.48166e-13 0 0)
(1.77636e-13 0 0)
(-1.42109e-13 0 0)
(-2.91323e-13 0 0)
(-2.06057e-13 0 0)
(-3.55271e-13 0 0)
(-1.91847e-13 0 0)
(-9.23705e-14 0 0)
(9.23705e-14 0 0)
(1.06581e-13 0 0)
(7.10545e-15 0 0)
(9.9476e-14 0 0)
(1.98952e-13 0 0)
(2.55795e-13 0 0)
(6.46594e-13 0 0)
(5.11591e-13 0 0)
(1.20792e-13 0 0)
(1.42108e-13 0 0)
(-2.84216e-14 0 0)
(1.13687e-13 0 0)
(2.84217e-14 0 0)
(-1.91846e-13 0 0)
(-7.81598e-14 0 0)
(-2.06057e-13 0 0)
(-9.23706e-14 0 0)
(1.35003e-13 0 0)
(1.27898e-13 0 0)
(1.56319e-13 0 0)
(-4.9738e-14 0 0)
(-1.63425e-13 0 0)
(-9.9476e-14 0 0)
(-1.63425e-13 0 0)
(-2.27374e-13 0 0)
(-9.9476e-14 0 0)
(9.94761e-14 0 0)
(1.35003e-13 0 0)
(1.49214e-13 0 0)
(5.68435e-14 0 0)
(-2.13163e-14 0 0)
(-1.42109e-14 0 0)
(-3.55271e-14 0 0)
(3.55272e-14 0 0)
(9.23705e-14 0 0)
(2.84217e-13 0 0)
(3.48166e-13 0 0)
(4.83169e-13 0 0)
(4.54747e-13 0 0)
(2.20268e-13 0 0)
(4.9738e-14 0 0)
(-1.06581e-13 0 0)
(-2.13162e-14 0 0)
(1.84741e-13 0 0)
(5.68434e-14 0 0)
(-7.10547e-15 0 0)
(-2.13163e-14 0 0)
(-7.81597e-14 0 0)
(6.39488e-14 0 0)
(1.56319e-13 0 0)
(-1.20792e-13 0 0)
(-2.41585e-13 0 0)
(-2.84217e-13 0 0)
(-2.4869e-13 0 0)
(-2.70006e-13 0 0)
(-5.32907e-13 0 0)
(-4.9738e-13 0 0)
(-7.31859e-13 0 0)
(-8.45546e-13 0 0)
(-8.31335e-13 0 0)
(-6.82121e-13 0 0)
(-5.11591e-13 0 0)
(-4.05009e-13 0 0)
(-4.26326e-13 0 0)
(-3.33955e-13 0 0)
(-1.77636e-13 0 0)
(4.26326e-14 0 0)
(1.42108e-14 0 0)
(7.71345e-20 0 0)
(-7.81598e-14 0 0)
(-3.05533e-13 0 0)
(-1.20792e-13 0 0)
(-1.98952e-13 0 0)
(-7.10547e-15 0 0)
(1.91847e-13 0 0)
(8.52652e-14 0 0)
(-5.48651e-20 0 0)
(-1.77636e-13 0 0)
(-9.94759e-14 0 0)
(-4.26325e-14 0 0)
(1.7053e-13 0 0)
(2.84217e-13 0 0)
(3.55271e-13 0 0)
(3.19744e-13 0 0)
(5.61329e-13 0 0)
(4.54747e-13 0 0)
(2.70006e-13 0 0)
(1.13687e-13 0 0)
(3.55271e-14 0 0)
(7.10535e-15 0 0)
(3.55273e-14 0 0)
(2.4869e-13 0 0)
(1.77636e-13 0 0)
(3.97904e-13 0 0)
(1.42109e-13 0 0)
(1.42109e-13 0 0)
(3.83693e-13 0 0)
(3.90798e-13 0 0)
(3.2685e-13 0 0)
(2.06057e-13 0 0)
(2.41585e-13 0 0)
(-5.68434e-14 0 0)
(-2.4869e-13 0 0)
(4.26326e-14 0 0)
(1.35003e-13 0 0)
(-2.84217e-14 0 0)
(-3.48166e-13 0 0)
(-2.27374e-13 0 0)
(-3.62377e-13 0 0)
(-1.5632e-13 0 0)
(-1.06581e-13 0 0)
(-7.81597e-14 0 0)
(3.55272e-14 0 0)
(1.06581e-13 0 0)
(-7.10541e-15 0 0)
(-2.62901e-13 0 0)
(-5.68435e-14 0 0)
(-2.20268e-13 0 0)
(-4.61853e-13 0 0)
(-5.04485e-13 0 0)
(-3.48166e-13 0 0)
(-2.84217e-13 0 0)
(-1.42109e-13 0 0)
(-1.84741e-13 0 0)
(-2.13163e-13 0 0)
(-4.72994e-20 0 0)
(-5.68434e-14 0 0)
(7.1054e-15 0 0)
(9.23706e-14 0 0)
(5.68434e-14 0 0)
(-1.63425e-13 0 0)
(-1.42108e-13 0 0)
(-2.41585e-13 0 0)
(-1.42109e-13 0 0)
(1.49214e-13 0 0)
(7.10543e-14 0 0)
(-7.10543e-14 0 0)
(-1.13687e-13 0 0)
(1.77636e-13 0 0)
(1.77636e-13 0 0)
(4.26326e-14 0 0)
(-1.49214e-13 0 0)
(-1.4211e-14 0 0)
(-1.27898e-13 0 0)
(-4.72893e-20 0 0)
(2.84217e-14 0 0)
(-2.84217e-14 0 0)
(-5.68435e-14 0 0)
(-3.55271e-14 0 0)
(-6.39488e-14 0 0)
(-2.4869e-13 0 0)
(-2.06057e-13 0 0)
(-2.70006e-13 0 0)
(-1.77636e-13 0 0)
(1.42109e-14 0 0)
(1.56319e-13 0 0)
(-5.68434e-14 0 0)
(4.9738e-14 0 0)
(3.54625e-20 0 0)
(2.41585e-13 0 0)
(-4.26326e-14 0 0)
(-2.27374e-13 0 0)
(-1.42109e-13 0 0)
(-4.12115e-13 0 0)
(-2.70006e-13 0 0)
(-1.63425e-13 0 0)
(-1.20792e-13 0 0)
(-2.84217e-14 0 0)
(-1.98952e-13 0 0)
(-2.34479e-13 0 0)
(-2.62901e-13 0 0)
(-1.84741e-13 0 0)
(-3.23634e-20 0 0)
(-2.84217e-14 0 0)
(-7.81598e-14 0 0)
(-2.98428e-13 0 0)
(1.27898e-13 0 0)
(4.05009e-13 0 0)
(1.84741e-13 0 0)
(2.13162e-14 0 0)
(-2.34479e-13 0 0)
(-1.77636e-13 0 0)
(-2.20268e-13 0 0)
(-4.40536e-13 0 0)
(-3.76588e-13 0 0)
(-3.33955e-13 0 0)
(-4.1922e-13 0 0)
(-4.9738e-13 0 0)
(-2.34479e-13 0 0)
(-2.20268e-13 0 0)
(-3.76588e-13 0 0)
(-5.7554e-13 0 0)
(-4.26326e-13 0 0)
(-4.33431e-13 0 0)
(-4.40537e-13 0 0)
(-3.76588e-13 0 0)
(-3.2685e-13 0 0)
(-4.26326e-14 0 0)
(-1.63425e-13 0 0)
(-2.41585e-13 0 0)
(-3.41061e-13 0 0)
(-7.38964e-13 0 0)
(-7.24754e-13 0 0)
(-5.96856e-13 0 0)
(-7.4607e-13 0 0)
(-8.73968e-13 0 0)
(-1.03739e-12 0 0)
(-9.37916e-13 0 0)
(-8.52651e-13 0 0)
(-9.59233e-13 0 0)
(-9.23706e-13 0 0)
(-9.166e-13 0 0)
(-8.10019e-13 0 0)
(-6.53699e-13 0 0)
(-4.54747e-13 0 0)
(-3.69482e-13 0 0)
(-3.33955e-13 0 0)
(-6.39489e-14 0 0)
(1.49214e-13 0 0)
(3.12639e-13 0 0)
(2.06057e-13 0 0)
(2.13164e-14 0 0)
(-7.81597e-14 0 0)
(9.9476e-14 0 0)
(1.77636e-13 0 0)
(3.2685e-13 0 0)
(8.10019e-13 0 0)
(2.17426e-12 0 0)
(6.68621e-12 0 0)
(2.07265e-11 0 0)
(6.21512e-11 0 0)
(1.80087e-10 0 0)
(5.12266e-10 0 0)
(1.43581e-09 0 0)
(3.96148e-09 0 0)
(1.07572e-08 0 0)
(2.87389e-08 0 0)
(7.55034e-08 0 0)
(1.94966e-07 0 0)
(4.94557e-07 0 0)
(1.23168e-06 0 0)
(3.0099e-06 0 0)
(7.21281e-06 0 0)
(1.69385e-05 0 0)
(3.89554e-05 0 0)
(8.76726e-05 0 0)
(0.000192945 0 0)
(0.000414886 0 0)
(0.000870924 0 0)
(0.00178321 0 0)
(0.00355786 0 0)
(0.00691063 0 0)
(0.0130543 0 0)
(0.0239579 0 0)
(0.042673 0 0)
(0.0736924 0 0)
(0.123264 0 0)
(0.19953 0 0)
(0.312335 0 0)
(0.472541 0 0)
(0.6908 0 0)
(0.975893 0 0)
(1.33297 0 0)
(1.7622 0 0)
(2.25841 0 0)
(2.81194 0 0)
(3.4106 0 0)
(4.042 0 0)
(4.69562 0 0)
(5.36371 0 0)
(6.04126 0 0)
(6.72525 0 0)
(7.41397 0 0)
(8.10645 0 0)
(8.80212 0 0)
(9.50063 0 0)
(10.2017 0 0)
(10.9052 0 0)
(11.611 0 0)
(12.319 0 0)
(13.0291 0 0)
(13.7413 0 0)
(14.4559 0 0)
(15.1714 0 0)
(15.8936 0 0)
(16.6024 0 0)
(17.3599 0 0)
(17.9951 0 0)
(18.8873 0 0)
(19.304 0 0)
(20.6739 0 0)
)
;

boundaryField
{
    sideLeft
    {
        type            symmetryPlane;
    }
    sideRight
    {
        type            myWaveTransmissive;
        phi             phi.air;
        rho             rho.air;
        psi             thermo:psi.air;
        gamma           1.4;
        fieldInf        (0 0 0);
        lInf            10;
        value           uniform (20.3877 0 0);
    }
    topbottom
    {
        type            empty;
    }
    frontback
    {
        type            empty;
    }
}


// ************************************************************************* //
