/*--------------------------------*- C++ -*----------------------------------*\
| =========                 |                                                 |
| \\      /  F ield         | OpenFOAM: The Open Source CFD Toolbox           |
|  \\    /   O peration     | Version:  2.4.0                                 |
|   \\  /    A nd           | Web:      www.OpenFOAM.org                      |
|    \\/     M anipulation  |                                                 |
\*---------------------------------------------------------------------------*/
FoamFile
{
    version     2.0;
    format      ascii;
    class       volVectorField;
    location    "0.01";
    object      U.waterMean;
}
// * * * * * * * * * * * * * * * * * * * * * * * * * * * * * * * * * * * * * //

dimensions      [0 1 -1 0 0 0 0];

internalField   nonuniform List<vector> 
1000
(
(-4.61853e-14 0 0)
(-1.22213e-14 0 0)
(-9.66339e-15 0 0)
(-5.18696e-15 0 0)
(-3.2756e-14 0 0)
(2.50821e-14 0 0)
(-1.03739e-14 0 0)
(6.96331e-15 0 0)
(-4.12115e-14 0 0)
(-2.99139e-14 0 0)
(-2.84928e-14 0 0)
(-9.24416e-14 0 0)
(-7.95814e-15 0 0)
(-6.4162e-14 0 0)
(-1.8332e-14 0 0)
(1.79056e-14 0 0)
(-1.23634e-14 0 0)
(3.94351e-14 0 0)
(3.19033e-14 0 0)
(-2.0961e-14 0 0)
(9.79127e-14 0 0)
(9.23707e-15 0 0)
(4.09983e-14 0 0)
(1.48503e-14 0 0)
(-1.15818e-14 0 0)
(-7.10543e-15 0 0)
(7.74491e-15 0 0)
(6.11066e-15 0 0)
(-2.01083e-14 0 0)
(8.63309e-14 0 0)
(2.15295e-14 0 0)
(5.48539e-14 0 0)
(1.15463e-13 0 0)
(3.16192e-14 0 0)
(9.74154e-14 0 0)
(1.7053e-15 0 0)
(-3.77298e-14 0 0)
(-7.4678e-14 0 0)
(-1.05231e-13 0 0)
(-9.8268e-14 0 0)
(-2.03926e-14 0 0)
(-1.06084e-13 0 0)
(-6.23146e-14 0 0)
(-9.67049e-14 0 0)
(-7.42517e-14 0 0)
(-4.93827e-14 0 0)
(-1.04876e-13 0 0)
(-5.09459e-14 0 0)
(3.6948e-15 0 0)
(-5.04485e-14 0 0)
(-4.90985e-14 0 0)
(-2.8848e-14 0 0)
(-6.87805e-14 0 0)
(2.45137e-14 0 0)
(4.90274e-15 0 0)
(3.58113e-14 0 0)
(1.86873e-14 0 0)
(1.1724e-13 0 0)
(8.38441e-14 0 0)
(1.10987e-13 0 0)
(9.99023e-14 0 0)
(1.2534e-13 0 0)
(1.24558e-13 0 0)
(1.08855e-13 0 0)
(2.11457e-13 0 0)
(1.63425e-13 0 0)
(1.96394e-13 0 0)
(1.35643e-13 0 0)
(1.15321e-13 0 0)
(1.61151e-13 0 0)
(3.18324e-14 0 0)
(1.37845e-13 0 0)
(-4.12111e-15 0 0)
(-9.52126e-15 0 0)
(-1.01608e-14 0 0)
(-8.48388e-14 0 0)
(2.54374e-14 0 0)
(-5.37881e-14 0 0)
(5.40012e-15 0 0)
(-6.25277e-15 0 0)
(-2.55085e-14 0 0)
(1.76214e-14 0 0)
(-5.29354e-14 0 0)
(6.11065e-15 0 0)
(2.53664e-14 0 0)
(2.65032e-14 0 0)
(-3.24008e-14 0 0)
(-3.91509e-14 0 0)
(-3.77299e-14 0 0)
(-9.72022e-14 0 0)
(-3.85114e-14 0 0)
(-6.5512e-14 0 0)
(-7.80175e-14 0 0)
(3.04822e-14 0 0)
(7.40385e-14 0 0)
(5.96145e-14 0 0)
(-3.5385e-14 0 0)
(3.8014e-14 0 0)
(-4.86722e-14 0 0)
(-2.11031e-14 0 0)
(-4.39115e-14 0 0)
(-5.66303e-14 0 0)
(-5.74829e-14 0 0)
(-8.22098e-14 0 0)
(-1.46301e-13 0 0)
(-1.70957e-13 0 0)
(-8.22809e-14 0 0)
(-1.36779e-13 0 0)
(-1.20295e-13 0 0)
(-1.21148e-13 0 0)
(-1.19798e-13 0 0)
(-1.00115e-13 0 0)
(-1.65556e-13 0 0)
(-1.22924e-13 0 0)
(-1.45803e-13 0 0)
(-1.82254e-13 0 0)
(-5.83356e-14 0 0)
(-5.94013e-14 0 0)
(5.1159e-14 0 0)
(5.30065e-14 0 0)
(7.75913e-14 0 0)
(9.75575e-14 0 0)
(8.5123e-14 0 0)
(8.28493e-14 0 0)
(1.11982e-13 0 0)
(1.26761e-13 0 0)
(1.44098e-13 0 0)
(1.52909e-13 0 0)
(1.88791e-13 0 0)
(1.9881e-13 0 0)
(1.61648e-13 0 0)
(1.81615e-13 0 0)
(1.54969e-13 0 0)
(1.54543e-13 0 0)
(5.62039e-14 0 0)
(6.92779e-14 0 0)
(8.98837e-14 0 0)
(4.78906e-14 0 0)
(1.48859e-13 0 0)
(7.11254e-14 0 0)
(1.6783e-13 0 0)
(5.63461e-14 0 0)
(7.43228e-14 0 0)
(9.92628e-14 0 0)
(-7.10267e-17 0 0)
(6.10356e-14 0 0)
(-1.2079e-15 0 0)
(1.06581e-14 0 0)
(-3.16902e-14 0 0)
(-4.59721e-14 0 0)
(-1.16742e-13 0 0)
(-1.03242e-13 0 0)
(-1.84173e-13 0 0)
(-1.79696e-13 0 0)
(-1.47509e-13 0 0)
(-1.50209e-13 0 0)
(-1.24416e-13 0 0)
(-1.61862e-13 0 0)
(-1.53477e-13 0 0)
(-1.44453e-13 0 0)
(-1.64064e-13 0 0)
(-1.65485e-13 0 0)
(-1.15676e-13 0 0)
(-9.6847e-14 0 0)
(-6.07514e-14 0 0)
(-3.89377e-14 0 0)
(6.6791e-14 0 0)
(3.85114e-14 0 0)
(-6.53696e-15 0 0)
(1.22213e-14 0 0)
(3.15481e-14 0 0)
(1.35003e-14 0 0)
(3.76587e-14 0 0)
(-1.06581e-15 0 0)
(-2.69295e-14 0 0)
(4.66116e-14 0 0)
(-3.4035e-14 0 0)
(6.40909e-14 0 0)
(-3.11928e-14 0 0)
(1.42109e-14 0 0)
(3.32534e-14 0 0)
(1.42819e-14 0 0)
(4.05008e-15 0 0)
(1.34293e-14 0 0)
(6.79989e-14 0 0)
(9.84102e-14 0 0)
(1.5703e-13 0 0)
(4.89565e-14 0 0)
(2.01368e-13 0 0)
(8.78941e-14 0 0)
(9.76996e-14 0 0)
(2.67164e-14 0 0)
(6.92779e-14 0 0)
(2.79954e-14 0 0)
(-3.36086e-14 0 0)
(-5.18699e-15 0 0)
(-5.54223e-14 0 0)
(-1.81189e-14 0 0)
(-9.67759e-14 0 0)
(-6.06804e-14 0 0)
(-1.04379e-13 0 0)
(-1.46088e-13 0 0)
(-1.53975e-13 0 0)
(-1.05942e-13 0 0)
(-1.19229e-13 0 0)
(-1.29532e-13 0 0)
(-4.71801e-14 0 0)
(-1.43672e-13 0 0)
(-1.19869e-13 0 0)
(-6.63647e-14 0 0)
(-3.51719e-14 0 0)
(-3.05533e-14 0 0)
(9.23704e-15 0 0)
(6.21725e-14 0 0)
(1.54614e-13 0 0)
(1.21716e-13 0 0)
(6.62226e-14 0 0)
(1.13829e-13 0 0)
(3.07665e-14 0 0)
(1.28537e-13 0 0)
(8.1144e-14 0 0)
(2.19558e-14 0 0)
(5.15854e-14 0 0)
(2.90612e-14 0 0)
(2.03926e-14 0 0)
(1.4424e-14 0 0)
(5.96145e-14 0 0)
(5.05196e-14 0 0)
(1.00826e-13 0 0)
(3.50298e-14 0 0)
(2.13163e-14 0 0)
(2.33058e-14 0 0)
(-6.80699e-14 0 0)
(3.58824e-14 0 0)
(-2.28084e-14 0 0)
(2.79954e-14 0 0)
(-4.67537e-14 0 0)
(-3.82272e-14 0 0)
(-1.79057e-14 0 0)
(-5.91882e-14 0 0)
(-2.94165e-14 0 0)
(-7.03437e-14 0 0)
(-9.08784e-14 0 0)
(-8.17124e-14 0 0)
(-4.0501e-14 0 0)
(-1.08784e-13 0 0)
(-6.05383e-14 0 0)
(-2.06058e-15 0 0)
(3.63087e-14 0 0)
(3.0127e-14 0 0)
(-1.01039e-13 0 0)
(-2.34485e-15 0 0)
(-1.54685e-13 0 0)
(-1.61933e-13 0 0)
(-2.04423e-13 0 0)
(-2.33413e-13 0 0)
(-1.14895e-13 0 0)
(-9.40048e-14 0 0)
(-7.88705e-15 0 0)
(-1.01394e-13 0 0)
(4.40533e-15 0 0)
(-4.37694e-14 0 0)
(-2.06768e-14 0 0)
(-6.7999e-14 0 0)
(-1.0985e-13 0 0)
(-5.3717e-14 0 0)
(-9.0381e-14 0 0)
(-8.34888e-14 0 0)
(-6.48726e-14 0 0)
(-8.5052e-14 0 0)
(-1.06581e-13 0 0)
(-5.66303e-14 0 0)
(-1.55609e-14 0 0)
(-6.97753e-14 0 0)
(-2.53664e-14 0 0)
(-2.18847e-14 0 0)
(-3.10507e-14 0 0)
(6.92068e-14 0 0)
(3.43903e-14 0 0)
(7.74492e-14 0 0)
(7.56018e-14 0 0)
(1.16955e-13 0 0)
(1.00044e-13 0 0)
(2.57217e-14 0 0)
(1.33511e-13 0 0)
(1.70388e-13 0 0)
(1.7117e-13 0 0)
(1.38627e-13 0 0)
(1.23066e-13 0 0)
(1.49853e-13 0 0)
(1.68541e-13 0 0)
(1.85949e-13 0 0)
(8.92442e-14 0 0)
(5.66303e-14 0 0)
(6.04672e-14 0 0)
(4.21352e-14 0 0)
(1.72662e-14 0 0)
(6.22435e-14 0 0)
(6.17461e-14 0 0)
(-2.55795e-14 0 0)
(1.78346e-14 0 0)
(6.537e-15 0 0)
(3.81561e-14 0 0)
(-5.7554e-15 0 0)
(-4.61852e-14 0 0)
(3.82982e-14 0 0)
(1.32161e-14 0 0)
(3.82272e-14 0 0)
(-1.43529e-14 0 0)
(1.98952e-14 0 0)
(9.59233e-15 0 0)
(-1.23634e-14 0 0)
(3.33955e-14 0 0)
(1.84741e-14 0 0)
(3.38929e-14 0 0)
(1.32161e-14 0 0)
(-1.32161e-14 0 0)
(2.47269e-14 0 0)
(-2.84201e-16 0 0)
(-1.19371e-14 0 0)
(-1.00897e-14 0 0)
(-9.76286e-14 0 0)
(-4.28458e-14 0 0)
(-1.13616e-13 0 0)
(-7.82308e-14 0 0)
(-9.85523e-14 0 0)
(-9.88365e-14 0 0)
(-1.87584e-14 0 0)
(-6.35936e-14 0 0)
(-6.18883e-14 0 0)
(-5.22959e-14 0 0)
(-6.25278e-14 0 0)
(-7.0699e-14 0 0)
(-2.78533e-14 0 0)
(-1.0516e-14 0 0)
(7.91544e-14 0 0)
(4.88143e-14 0 0)
(3.36797e-14 0 0)
(8.91731e-14 0 0)
(1.32729e-13 0 0)
(1.16245e-13 0 0)
(2.08757e-13 0 0)
(7.49623e-14 0 0)
(7.83729e-14 0 0)
(1.34648e-13 0 0)
(7.51044e-14 0 0)
(1.4893e-13 0 0)
(7.4607e-14 0 0)
(1.31308e-13 0 0)
(5.54224e-14 0 0)
(1.09352e-13 0 0)
(2.77823e-14 0 0)
(8.2494e-14 0 0)
(7.10543e-14 0 0)
(1.41327e-13 0 0)
(1.03526e-13 0 0)
(-3.68771e-14 0 0)
(3.17612e-14 0 0)
(-8.5123e-14 0 0)
(-1.32872e-14 0 0)
(-3.94351e-14 0 0)
(-3.06955e-14 0 0)
(-3.45324e-14 0 0)
(-1.10845e-14 0 0)
(1.35713e-14 0 0)
(-8.61178e-14 0 0)
(-9.86233e-14 0 0)
(-1.04734e-13 0 0)
(-8.896e-14 0 0)
(-1.09992e-13 0 0)
(-6.24567e-14 0 0)
(-3.9222e-14 0 0)
(-7.28306e-14 0 0)
(-3.4035e-14 0 0)
(-6.05382e-14 0 0)
(1.1795e-14 0 0)
(-4.56168e-14 0 0)
(7.81597e-14 0 0)
(3.88667e-14 0 0)
(9.76996e-14 0 0)
(9.13758e-14 0 0)
(1.41966e-13 0 0)
(7.8444e-14 0 0)
(6.23857e-14 0 0)
(1.07718e-13 0 0)
(4.74643e-14 0 0)
(1.61648e-13 0 0)
(1.247e-13 0 0)
(1.18447e-13 0 0)
(4.81748e-14 0 0)
(5.44276e-14 0 0)
(8.22098e-14 0 0)
(8.88178e-14 0 0)
(2.15295e-14 0 0)
(9.67759e-14 0 0)
(-1.77635e-14 0 0)
(1.08003e-14 0 0)
(-1.87583e-14 0 0)
(3.0127e-14 0 0)
(2.23821e-14 0 0)
(-3.2756e-14 0 0)
(9.37917e-15 0 0)
(-6.11777e-14 0 0)
(4.08562e-14 0 0)
(2.62902e-15 0 0)
(-3.58824e-14 0 0)
(3.33955e-14 0 0)
(-2.41584e-14 0 0)
(-1.53477e-14 0 0)
(-2.70006e-14 0 0)
(-2.86349e-14 0 0)
(-4.76774e-14 0 0)
(-4.72511e-14 0 0)
(-3.73035e-14 0 0)
(-1.1795e-13 0 0)
(-1.21787e-13 0 0)
(-8.58336e-14 0 0)
(-9.96181e-14 0 0)
(-1.22142e-13 0 0)
(-3.60245e-14 0 0)
(-7.71649e-14 0 0)
(-4.5759e-14 0 0)
(-1.29248e-13 0 0)
(-1.35714e-13 0 0)
(-1.22355e-13 0 0)
(-1.47153e-13 0 0)
(-1.16742e-13 0 0)
(-9.72733e-14 0 0)
(-8.51231e-14 0 0)
(-1.55254e-13 0 0)
(-3.27561e-14 0 0)
(-1.46585e-13 0 0)
(-9.25837e-14 0 0)
(-3.17613e-14 0 0)
(-8.65441e-14 0 0)
(-1.01252e-13 0 0)
(-1.75504e-13 0 0)
(-1.10205e-13 0 0)
(-1.2939e-13 0 0)
(-8.21387e-14 0 0)
(-5.93303e-14 0 0)
(-6.62936e-14 0 0)
(-9.6918e-14 0 0)
(-6.32383e-14 0 0)
(-5.47828e-14 0 0)
(-1.23635e-14 0 0)
(-1.98241e-14 0 0)
(3.83693e-15 0 0)
(3.8014e-14 0 0)
(4.08562e-14 0 0)
(9.74154e-14 0 0)
(7.87281e-14 0 0)
(1.41682e-13 0 0)
(1.37703e-13 0 0)
(1.49498e-13 0 0)
(1.43672e-13 0 0)
(1.41753e-13 0 0)
(1.85594e-13 0 0)
(9.22285e-14 0 0)
(5.64171e-14 0 0)
(1.02247e-13 0 0)
(3.21166e-14 0 0)
(2.17426e-14 0 0)
(-6.50146e-14 0 0)
(-4.99512e-14 0 0)
(-5.64881e-14 0 0)
(-5.59197e-14 0 0)
(-5.3717e-14 0 0)
(-3.60245e-14 0 0)
(-2.50111e-14 0 0)
(1.02318e-14 0 0)
(-7.10543e-14 0 0)
(-7.66675e-14 0 0)
(-4.86012e-14 0 0)
(-1.76499e-13 0 0)
(-8.1144e-14 0 0)
(-7.37544e-14 0 0)
(-7.68807e-14 0 0)
(-5.03775e-14 0 0)
(-2.13873e-14 0 0)
(-1.11555e-14 0 0)
(2.82796e-14 0 0)
(2.8848e-14 0 0)
(2.55795e-14 0 0)
(2.96297e-14 0 0)
(2.24531e-14 0 0)
(3.70193e-14 0 0)
(-1.91136e-14 0 0)
(-5.11591e-15 0 0)
(-3.15481e-14 0 0)
(5.74118e-14 0 0)
(2.06768e-14 0 0)
(1.81899e-14 0 0)
(2.52243e-14 0 0)
(1.42819e-14 0 0)
(1.71951e-14 0 0)
(-9.01678e-14 0 0)
(-6.87805e-14 0 0)
(-1.08784e-13 0 0)
(-4.12115e-14 0 0)
(-4.80327e-14 0 0)
(-3.37508e-14 0 0)
(-2.95586e-14 0 0)
(-8.95994e-14 0 0)
(2.84214e-15 0 0)
(-3.58114e-14 0 0)
(-8.34177e-14 0 0)
(2.80664e-14 0 0)
(-1.47793e-14 0 0)
(2.37321e-14 0 0)
(-1.76214e-14 0 0)
(-1.63427e-15 0 0)
(5.32907e-15 0 0)
(6.39487e-15 0 0)
(-3.44613e-14 0 0)
(-1.81188e-14 0 0)
(6.58673e-14 0 0)
(1.02531e-13 0 0)
(1.39124e-13 0 0)
(6.00409e-14 0 0)
(1.058e-13 0 0)
(6.95621e-14 0 0)
(5.40013e-14 0 0)
(4.69669e-14 0 0)
(1.99663e-14 0 0)
(3.69482e-14 0 0)
(3.31824e-14 0 0)
(3.58114e-14 0 0)
(7.4678e-14 0 0)
(6.26699e-14 0 0)
(1.21219e-13 0 0)
(3.33245e-14 0 0)
(6.75726e-14 0 0)
(9.4218e-14 0 0)
(1.12195e-13 0 0)
(9.79128e-14 0 0)
(7.70228e-14 0 0)
(3.6664e-14 0 0)
(-6.29541e-14 0 0)
(-3.30403e-14 0 0)
(-1.48503e-13 0 0)
(-5.00222e-14 0 0)
(-7.50333e-14 0 0)
(-7.54596e-14 0 0)
(-1.03029e-13 0 0)
(-7.38254e-14 0 0)
(-3.54561e-14 0 0)
(-1.05231e-13 0 0)
(-7.80176e-14 0 0)
(-4.74642e-14 0 0)
(-5.08749e-14 0 0)
(-9.49995e-14 0 0)
(-1.03739e-14 0 0)
(-6.32383e-14 0 0)
(-2.26663e-14 0 0)
(-1.4424e-14 0 0)
(2.62901e-14 0 0)
(9.09495e-15 0 0)
(2.0961e-14 0 0)
(7.17647e-15 0 0)
(-1.22924e-14 0 0)
(2.04636e-14 0 0)
(-5.45697e-14 0 0)
(-2.20979e-14 0 0)
(-7.08411e-14 0 0)
(-7.29727e-14 0 0)
(3.88667e-14 0 0)
(3.83693e-14 0 0)
(3.76588e-14 0 0)
(8.20677e-14 0 0)
(8.82494e-14 0 0)
(2.47269e-14 0 0)
(-2.17426e-14 0 0)
(-5.06617e-14 0 0)
(1.02318e-14 0 0)
(2.82085e-14 0 0)
(5.53513e-14 0 0)
(4.42668e-14 0 0)
(1.62714e-14 0 0)
(2.85638e-14 0 0)
(5.59197e-14 0 0)
(3.1335e-14 0 0)
(-4.17088e-14 0 0)
(5.38591e-14 0 0)
(-2.16005e-14 0 0)
(-4.40537e-14 0 0)
(-8.75388e-14 0 0)
(1.66267e-14 0 0)
(2.07478e-14 0 0)
(-7.61701e-14 0 0)
(-2.76401e-14 0 0)
(-6.84963e-14 0 0)
(-9.23709e-15 0 0)
(-9.52127e-14 0 0)
(-1.14824e-13 0 0)
(-1.28182e-13 0 0)
(-1.65059e-13 0 0)
(-3.01271e-14 0 0)
(-5.12301e-14 0 0)
(-7.24043e-14 0 0)
(3.91509e-14 0 0)
(2.58637e-14 0 0)
(-4.0643e-14 0 0)
(2.70717e-14 0 0)
(5.40723e-14 0 0)
(1.15818e-13 0 0)
(8.81784e-14 0 0)
(9.80549e-14 0 0)
(9.87655e-15 0 0)
(1.77638e-15 0 0)
(7.38964e-14 0 0)
(3.85825e-14 0 0)
(2.73559e-14 0 0)
(-1.47793e-14 0 0)
(9.23705e-15 0 0)
(1.72662e-14 0 0)
(3.24718e-14 0 0)
(8.46256e-14 0 0)
(3.54561e-14 0 0)
(-5.20828e-14 0 0)
(-4.54747e-14 0 0)
(1.10845e-14 0 0)
(1.71241e-14 0 0)
(5.96856e-14 0 0)
(4.16378e-14 0 0)
(4.68958e-14 0 0)
(-3.73035e-14 0 0)
(-9.28679e-14 0 0)
(-4.41957e-14 0 0)
(3.08375e-14 0 0)
(-4.09272e-14 0 0)
(-5.32907e-15 0 0)
(3.99325e-14 0 0)
(-1.3074e-14 0 0)
(3.59535e-14 0 0)
(-4.29168e-14 0 0)
(4.23483e-14 0 0)
(2.56506e-14 0 0)
(5.89751e-15 0 0)
(-2.44427e-14 0 0)
(7.10541e-15 0 0)
(3.30403e-14 0 0)
(7.49622e-14 0 0)
(2.82085e-14 0 0)
(-2.17426e-14 0 0)
(5.67723e-14 0 0)
(7.03439e-15 0 0)
(7.36122e-14 0 0)
(6.11777e-14 0 0)
(6.2812e-14 0 0)
(1.81757e-13 0 0)
(1.05231e-13 0 0)
(1.32161e-13 0 0)
(1.23279e-13 0 0)
(2.15295e-14 0 0)
(8.34887e-14 0 0)
(-4.51905e-14 0 0)
(3.51008e-14 0 0)
(3.33244e-14 0 0)
(2.089e-14 0 0)
(9.66339e-15 0 0)
(2.89191e-14 0 0)
(1.85452e-14 0 0)
(-7.15516e-14 0 0)
(5.39302e-14 0 0)
(-1.59161e-14 0 0)
(1.48504e-14 0 0)
(2.50822e-14 0 0)
(6.96332e-14 0 0)
(3.55982e-14 0 0)
(4.91696e-14 0 0)
(1.14468e-13 0 0)
(-2.5011e-14 0 0)
(1.03668e-13 0 0)
(2.11742e-14 0 0)
(5.74829e-14 0 0)
(7.88702e-15 0 0)
(-1.66267e-14 0 0)
(4.33431e-14 0 0)
(6.76437e-14 0 0)
(6.77147e-14 0 0)
(3.41061e-14 0 0)
(-7.46066e-15 0 0)
(3.08375e-14 0 0)
(-5.15854e-14 0 0)
(-1.13616e-13 0 0)
(-9.72733e-14 0 0)
(-1.26121e-13 0 0)
(-6.51568e-14 0 0)
(-1.35927e-13 0 0)
(-2.96297e-14 0 0)
(-1.1859e-13 0 0)
(-6.40909e-14 0 0)
(-2.59348e-14 0 0)
(-2.08189e-14 0 0)
(-2.95586e-14 0 0)
(-5.61329e-14 0 0)
(-2.81375e-14 0 0)
(-6.01119e-14 0 0)
(-9.42179e-14 0 0)
(3.19739e-15 0 0)
(-4.09273e-14 0 0)
(-8.93152e-14 0 0)
(-5.57776e-14 0 0)
(-8.00782e-14 0 0)
(-6.71463e-14 0 0)
(-1.28963e-13 0 0)
(-2.84928e-14 0 0)
(-1.10205e-13 0 0)
(-5.55645e-14 0 0)
(-1.1589e-13 0 0)
(-1.58025e-13 0 0)
(-1.53335e-13 0 0)
(-1.66196e-13 0 0)
(-5.28644e-14 0 0)
(-2.40874e-14 0 0)
(-4.80327e-14 0 0)
(-8.00071e-14 0 0)
(3.97902e-15 0 0)
(-8.55493e-14 0 0)
(-1.27898e-14 0 0)
(-6.10356e-14 0 0)
(-9.40758e-14 0 0)
(3.95772e-14 0 0)
(3.87246e-14 0 0)
(1.55751e-13 0 0)
(1.6712e-13 0 0)
(1.37561e-13 0 0)
(1.74296e-13 0 0)
(1.23208e-13 0 0)
(1.21645e-13 0 0)
(7.7236e-14 0 0)
(3.16191e-14 0 0)
(-1.16529e-14 0 0)
(-2.68585e-14 0 0)
(-2.47268e-14 0 0)
(7.26175e-14 0 0)
(6.88516e-14 0 0)
(2.38743e-14 0 0)
(1.15321e-13 0 0)
(1.59233e-13 0 0)
(1.2129e-13 0 0)
(7.70939e-14 0 0)
(1.40972e-13 0 0)
(9.77707e-14 0 0)
(5.71987e-14 0 0)
(7.52464e-14 0 0)
(7.10551e-16 0 0)
(-2.30926e-14 0 0)
(-6.19593e-14 0 0)
(-4.11405e-14 0 0)
(-9.00257e-14 0 0)
(-4.73932e-14 0 0)
(-4.59721e-14 0 0)
(2.73559e-14 0 0)
(2.63611e-14 0 0)
(-4.00035e-14 0 0)
(-3.42482e-14 0 0)
(-1.04876e-13 0 0)
(-1.16671e-13 0 0)
(-1.00329e-13 0 0)
(-1.22071e-13 0 0)
(-8.12151e-14 0 0)
(-9.52127e-14 0 0)
(-1.55111e-13 0 0)
(-5.72698e-14 0 0)
(-1.31735e-13 0 0)
(-1.51843e-13 0 0)
(-1.4623e-13 0 0)
(-1.60014e-13 0 0)
(-1.98952e-13 0 0)
(-1.43388e-13 0 0)
(-2.27374e-13 0 0)
(-1.14682e-13 0 0)
(-2.05702e-13 0 0)
(-1.5703e-13 0 0)
(-1.01821e-13 0 0)
(-1.29035e-13 0 0)
(-2.27379e-15 0 0)
(-9.10205e-14 0 0)
(-6.30252e-14 0 0)
(-1.23279e-13 0 0)
(-9.23706e-14 0 0)
(-1.36851e-13 0 0)
(-1.25837e-13 0 0)
(-7.19069e-14 0 0)
(-1.37135e-13 0 0)
(-1.87867e-13 0 0)
(-1.71809e-13 0 0)
(-7.93676e-14 0 0)
(-6.42331e-14 0 0)
(-4.21352e-14 0 0)
(-4.14246e-14 0 0)
(1.12195e-13 0 0)
(1.19372e-14 0 0)
(1.17737e-13 0 0)
(1.01323e-13 0 0)
(1.08997e-13 0 0)
(1.5568e-13 0 0)
(4.19931e-14 0 0)
(1.5234e-13 0 0)
(1.47011e-13 0 0)
(2.06839e-13 0 0)
(1.49285e-13 0 0)
(1.32161e-13 0 0)
(1.45661e-13 0 0)
(1.67191e-13 0 0)
(1.31521e-13 0 0)
(1.05018e-13 0 0)
(7.39675e-14 0 0)
(7.41807e-14 0 0)
(8.22808e-14 0 0)
(1.18661e-14 0 0)
(4.65406e-14 0 0)
(8.27782e-14 0 0)
(6.96332e-14 0 0)
(1.12692e-13 0 0)
(-6.03957e-15 0 0)
(6.52988e-14 0 0)
(-5.61329e-14 0 0)
(-9.20863e-14 0 0)
(-1.24558e-13 0 0)
(-1.17453e-13 0 0)
(-9.45022e-14 0 0)
(-5.81224e-14 0 0)
(-1.99663e-14 0 0)
(-8.30624e-14 0 0)
(-5.79803e-14 0 0)
(-6.48726e-14 0 0)
(-4.8388e-14 0 0)
(-7.40385e-14 0 0)
(-7.48912e-14 0 0)
(-7.24043e-14 0 0)
(-6.08935e-14 0 0)
(-2.84228e-16 0 0)
(-3.59535e-14 0 0)
(-1.78346e-14 0 0)
(-5.16565e-14 0 0)
(-4.94538e-14 0 0)
(-8.84626e-14 0 0)
(-1.58664e-13 0 0)
(-1.02034e-13 0 0)
(-1.06652e-13 0 0)
(-9.00258e-14 0 0)
(-1.29887e-13 0 0)
(-7.51754e-14 0 0)
(-6.34515e-14 0 0)
(-4.26326e-14 0 0)
(-7.46073e-15 0 0)
(-4.36273e-14 0 0)
(-6.65778e-14 0 0)
(6.13908e-14 0 0)
(-5.40012e-14 0 0)
(-1.93978e-14 0 0)
(-7.79465e-14 0 0)
(-6.33094e-14 0 0)
(-1.4424e-14 0 0)
(-2.89191e-14 0 0)
(-1.59872e-14 0 0)
(-1.56319e-14 0 0)
(1.69109e-14 0 0)
(1.86873e-14 0 0)
(5.95435e-14 0 0)
(-2.1032e-14 0 0)
(7.29016e-14 0 0)
(-5.67723e-14 0 0)
(-3.90088e-14 0 0)
(-2.78533e-14 0 0)
(3.70193e-14 0 0)
(2.62901e-14 0 0)
(4.21352e-14 0 0)
(1.37135e-14 0 0)
(-4.9738e-14 0 0)
(-1.52767e-14 0 0)
(-8.1215e-14 0 0)
(-4.35563e-14 0 0)
(-5.62039e-14 0 0)
(-8.21387e-14 0 0)
(-7.38965e-14 0 0)
(-1.11129e-13 0 0)
(-1.14468e-13 0 0)
(-8.73968e-14 0 0)
(-1.20366e-13 0 0)
(-6.30252e-14 0 0)
(-6.97043e-14 0 0)
(1.50635e-14 0 0)
(-3.70903e-14 0 0)
(-6.26699e-14 0 0)
(-1.76925e-14 0 0)
(-5.25802e-14 0 0)
(-3.62377e-14 0 0)
(-5.78382e-14 0 0)
(-2.32347e-14 0 0)
(-2.46558e-14 0 0)
(-1.62004e-14 0 0)
(-2.43716e-14 0 0)
(-2.2027e-15 0 0)
(-2.33769e-14 0 0)
(-8.66151e-14 0 0)
(-6.25278e-14 0 0)
(-1.33866e-13 0 0)
(-1.39267e-14 0 0)
(-9.46443e-14 0 0)
(-6.62226e-14 0 0)
(-8.96705e-14 0 0)
(-1.28182e-13 0 0)
(-8.67573e-14 0 0)
(-1.06795e-13 0 0)
(-9.97602e-14 0 0)
(-7.51754e-14 0 0)
(-1.34577e-13 0 0)
(-1.53833e-13 0 0)
(-1.59304e-13 0 0)
(-2.70006e-13 0 0)
(-1.18661e-13 0 0)
(-2.35332e-13 0 0)
(-2.81233e-13 0 0)
(-1.87725e-13 0 0)
(-2.66738e-13 0 0)
(-2.93454e-13 0 0)
(-2.77964e-13 0 0)
(-3.3701e-13 0 0)
(-2.74696e-13 0 0)
(-2.40021e-13 0 0)
(-1.94262e-13 0 0)
(-2.28795e-13 0 0)
(-1.81259e-13 0 0)
(-2.11173e-13 0 0)
(-1.93978e-13 0 0)
(-1.70886e-13 0 0)
(-2.46061e-13 0 0)
(-1.90354e-13 0 0)
(-1.9881e-13 0 0)
(-7.94387e-14 0 0)
(-9.32943e-14 0 0)
(-3.21876e-14 0 0)
(-2.05347e-14 0 0)
(1.39267e-14 0 0)
(5.18696e-13 0 0)
(1.59098e-12 0 0)
(4.88754e-12 0 0)
(1.41211e-11 0 0)
(4.03431e-11 0 0)
(1.13515e-10 0 0)
(3.14131e-10 0 0)
(8.55971e-10 0 0)
(2.2949e-09 0 0)
(6.05261e-09 0 0)
(1.56946e-08 0 0)
(3.99926e-08 0 0)
(1.00093e-07 0 0)
(2.45916e-07 0 0)
(5.9276e-07 0 0)
(1.40096e-06 0 0)
(3.24455e-06 0 0)
(7.35843e-06 0 0)
(1.63315e-05 0 0)
(3.54463e-05 0 0)
(7.518e-05 0 0)
(0.000155702 0 0)
(0.000314635 0 0)
(0.000619868 0 0)
(0.00118967 0 0)
(0.00222251 0 0)
(0.00403853 0 0)
(0.00713267 0 0)
(0.0122365 0 0)
(0.0203801 0 0)
(0.0329417 0 0)
(0.051665 0 0)
(0.0786299 0 0)
(0.116163 0 0)
(0.166696 0 0)
(0.232588 0 0)
(0.315955 0 0)
(0.418552 0 0)
(0.541719 0 0)
(0.686412 0 0)
(0.853282 0 0)
(1.04277 0 0)
(1.25519 0 0)
(1.49077 0 0)
(1.74971 0 0)
(2.03217 0 0)
(2.33831 0 0)
(2.66827 0 0)
(3.02219 0 0)
(3.40021 0 0)
(3.80244 0 0)
(4.22903 0 0)
(4.68008 0 0)
(5.15575 0 0)
(5.65596 0 0)
(6.18166 0 0)
(6.72955 0 0)
(7.31212 0 0)
(7.88703 0 0)
(8.58143 0 0)
(9.02442 0 0)
(10.2466 0 0)
)
;

boundaryField
{
    sideLeft
    {
        type            symmetryPlane;
    }
    sideRight
    {
        type            calculated;
        value           uniform (10.2466 0 0);
    }
    topbottom
    {
        type            empty;
    }
    frontback
    {
        type            empty;
    }
}


// ************************************************************************* //
