/*--------------------------------*- C++ -*----------------------------------*\
| =========                 |                                                 |
| \\      /  F ield         | OpenFOAM: The Open Source CFD Toolbox           |
|  \\    /   O peration     | Version:  2.4.0                                 |
|   \\  /    A nd           | Web:      www.OpenFOAM.org                      |
|    \\/     M anipulation  |                                                 |
\*---------------------------------------------------------------------------*/
FoamFile
{
    version     2.0;
    format      ascii;
    class       volVectorField;
    location    "0.01";
    object      U.water;
}
// * * * * * * * * * * * * * * * * * * * * * * * * * * * * * * * * * * * * * //

dimensions      [0 1 -1 0 0 0 0];

internalField   nonuniform List<vector> 
1000
(
(-1.63425e-13 0 0)
(-9.23706e-14 0 0)
(-5.68434e-14 0 0)
(-1.42109e-13 0 0)
(-1.77636e-13 0 0)
(-7.10547e-15 0 0)
(-4.9738e-14 0 0)
(-1.20792e-13 0 0)
(-2.13163e-13 0 0)
(-2.06057e-13 0 0)
(-3.41061e-13 0 0)
(-5.82645e-13 0 0)
(-3.41061e-13 0 0)
(1.42109e-14 0 0)
(-7.10543e-15 0 0)
(4.26325e-14 0 0)
(2.55795e-13 0 0)
(1.27898e-13 0 0)
(-3.55272e-14 0 0)
(6.39489e-14 0 0)
(1.06581e-13 0 0)
(-1.42108e-13 0 0)
(-4.9738e-14 0 0)
(-7.81597e-14 0 0)
(1.77636e-13 0 0)
(1.49214e-13 0 0)
(1.56319e-13 0 0)
(1.77636e-13 0 0)
(8.52652e-14 0 0)
(-8.07581e-20 0 0)
(-2.27374e-13 0 0)
(1.56319e-13 0 0)
(1.84741e-13 0 0)
(2.41585e-13 0 0)
(3.69482e-13 0 0)
(-1.98952e-13 0 0)
(-1.06581e-13 0 0)
(-1.49214e-13 0 0)
(6.39489e-14 0 0)
(9.23706e-14 0 0)
(-4.97381e-14 0 0)
(7.81598e-14 0 0)
(-2.13163e-14 0 0)
(-2.4869e-13 0 0)
(-7.81597e-14 0 0)
(-2.13163e-13 0 0)
(-4.33431e-13 0 0)
(-1.98952e-13 0 0)
(-1.20792e-13 0 0)
(-1.27898e-13 0 0)
(-3.19744e-13 0 0)
(-3.76588e-13 0 0)
(-2.41584e-13 0 0)
(5.68433e-14 0 0)
(-1.06581e-13 0 0)
(-1.42109e-13 0 0)
(-4.26325e-14 0 0)
(1.13687e-13 0 0)
(1.20792e-13 0 0)
(7.81597e-14 0 0)
(1.77636e-13 0 0)
(9.9476e-14 0 0)
(1.91847e-13 0 0)
(3.12639e-13 0 0)
(7.10543e-13 0 0)
(1.06581e-12 0 0)
(1.1724e-12 0 0)
(1.14397e-12 0 0)
(9.23706e-13 0 0)
(6.53699e-13 0 0)
(-7.10532e-15 0 0)
(9.94759e-14 0 0)
(1.63425e-13 0 0)
(1.77636e-13 0 0)
(2.41585e-13 0 0)
(1.4211e-14 0 0)
(3.12639e-13 0 0)
(2.91323e-13 0 0)
(3.55271e-13 0 0)
(2.91323e-13 0 0)
(1.13687e-13 0 0)
(-4.97381e-14 0 0)
(-2.34479e-13 0 0)
(-1.98952e-13 0 0)
(-3.83693e-13 0 0)
(-6.25278e-13 0 0)
(-6.89226e-13 0 0)
(-6.60805e-13 0 0)
(-9.73444e-13 0 0)
(-1.03029e-12 0 0)
(-7.10543e-13 0 0)
(-5.04485e-13 0 0)
(-5.47118e-13 0 0)
(-5.18696e-13 0 0)
(-3.05533e-13 0 0)
(-1.06581e-13 0 0)
(2.84218e-14 0 0)
(2.13163e-13 0 0)
(1.35003e-13 0 0)
(1.7053e-13 0 0)
(2.70006e-13 0 0)
(1.49214e-13 0 0)
(2.84217e-14 0 0)
(1.27898e-13 0 0)
(-2.27374e-13 0 0)
(-7.10538e-15 0 0)
(2.91322e-13 0 0)
(-2.4869e-13 0 0)
(-1.27898e-13 0 0)
(-9.9476e-14 0 0)
(-2.84217e-14 0 0)
(1.35003e-13 0 0)
(-2.27374e-13 0 0)
(-2.41585e-13 0 0)
(-2.06057e-13 0 0)
(-2.84216e-14 0 0)
(1.27898e-13 0 0)
(-7.81596e-14 0 0)
(1.7053e-13 0 0)
(3.55271e-13 0 0)
(3.12639e-13 0 0)
(1.49214e-13 0 0)
(1.27898e-13 0 0)
(-2.13163e-14 0 0)
(-2.91323e-13 0 0)
(-1.63425e-13 0 0)
(-1.56319e-13 0 0)
(-1.63425e-13 0 0)
(-4.9738e-14 0 0)
(-2.77112e-13 0 0)
(-4.61853e-13 0 0)
(-4.1922e-13 0 0)
(7.10544e-15 0 0)
(2.41584e-13 0 0)
(1.42109e-13 0 0)
(1.13687e-13 0 0)
(2.13163e-13 0 0)
(1.84741e-13 0 0)
(4.33431e-13 0 0)
(5.47118e-13 0 0)
(4.54747e-13 0 0)
(3.33955e-13 0 0)
(1.35003e-13 0 0)
(1.91846e-13 0 0)
(1.20792e-13 0 0)
(4.97379e-14 0 0)
(-1.42109e-13 0 0)
(-3.33955e-13 0 0)
(-1.27898e-13 0 0)
(-2.13163e-14 0 0)
(-2.27374e-13 0 0)
(-1.42109e-14 0 0)
(1.84741e-13 0 0)
(1.63425e-13 0 0)
(-1.96438e-20 0 0)
(-2.27374e-13 0 0)
(-1.77636e-13 0 0)
(2.56752e-20 0 0)
(-1.42109e-14 0 0)
(-1.91847e-13 0 0)
(2.32476e-20 0 0)
(2.55795e-13 0 0)
(-1.35003e-13 0 0)
(-1.56319e-13 0 0)
(-1.06581e-13 0 0)
(-2.98428e-13 0 0)
(1.91846e-13 0 0)
(3.55271e-13 0 0)
(1.84741e-13 0 0)
(-2.84217e-14 0 0)
(1.13687e-13 0 0)
(1.13687e-13 0 0)
(-2.06057e-13 0 0)
(-2.27374e-13 0 0)
(-3.33955e-13 0 0)
(-4.05009e-13 0 0)
(-3.4106e-13 0 0)
(5.68433e-14 0 0)
(-1.77636e-13 0 0)
(-3.2685e-13 0 0)
(-3.48166e-13 0 0)
(-2.70006e-13 0 0)
(-2.34479e-13 0 0)
(-2.77112e-13 0 0)
(-4.05009e-13 0 0)
(-3.90798e-13 0 0)
(1.20792e-13 0 0)
(3.12639e-13 0 0)
(8.24229e-13 0 0)
(7.24754e-13 0 0)
(5.54223e-13 0 0)
(1.42109e-13 0 0)
(-1.42109e-13 0 0)
(-2.91323e-13 0 0)
(-1.42109e-13 0 0)
(1.06581e-13 0 0)
(7.10543e-14 0 0)
(-5.68435e-14 0 0)
(-3.90798e-13 0 0)
(-5.04485e-13 0 0)
(-4.68958e-13 0 0)
(-1.35003e-13 0 0)
(8.52652e-14 0 0)
(1.56319e-13 0 0)
(-9.23705e-14 0 0)
(-2.27374e-13 0 0)
(-2.84217e-13 0 0)
(-2.27374e-13 0 0)
(-7.81597e-14 0 0)
(2.13162e-14 0 0)
(1.13687e-13 0 0)
(7.10547e-15 0 0)
(3.90798e-13 0 0)
(5.32907e-13 0 0)
(6.03961e-13 0 0)
(7.10543e-13 0 0)
(5.68434e-13 0 0)
(3.90798e-13 0 0)
(2.06057e-13 0 0)
(4.54747e-13 0 0)
(5.25802e-13 0 0)
(4.76064e-13 0 0)
(1.35003e-13 0 0)
(-9.23706e-14 0 0)
(-2.00247e-20 0 0)
(-1.84741e-13 0 0)
(-1.13687e-13 0 0)
(1.42109e-14 0 0)
(-6.50293e-20 0 0)
(1.84741e-13 0 0)
(1.27898e-13 0 0)
(-2.84217e-14 0 0)
(-1.63425e-13 0 0)
(-3.83693e-13 0 0)
(-3.4106e-13 0 0)
(-9.23706e-14 0 0)
(-2.34479e-13 0 0)
(7.10545e-15 0 0)
(6.39488e-14 0 0)
(4.9738e-14 0 0)
(-9.9476e-14 0 0)
(-5.47118e-13 0 0)
(-6.39488e-13 0 0)
(-4.1922e-13 0 0)
(-3.55272e-14 0 0)
(-2.13163e-13 0 0)
(-3.76588e-13 0 0)
(-3.48166e-13 0 0)
(-5.18696e-13 0 0)
(-2.13163e-13 0 0)
(-2.13163e-13 0 0)
(-1.91847e-13 0 0)
(-2.34479e-13 0 0)
(-2.84217e-13 0 0)
(-1.42109e-13 0 0)
(2.84218e-14 0 0)
(2.55795e-13 0 0)
(2.13163e-14 0 0)
(-1.20792e-13 0 0)
(-1.35003e-13 0 0)
(4.26325e-14 0 0)
(-2.20268e-13 0 0)
(-2.4869e-13 0 0)
(-2.34479e-13 0 0)
(-7.10536e-15 0 0)
(7.10542e-14 0 0)
(-4.54747e-13 0 0)
(-5.96856e-13 0 0)
(-2.77112e-13 0 0)
(7.10543e-14 0 0)
(7.10548e-15 0 0)
(-1.35003e-13 0 0)
(1.77636e-13 0 0)
(2.77112e-13 0 0)
(1.63425e-13 0 0)
(4.33431e-13 0 0)
(6.32383e-13 0 0)
(4.26326e-13 0 0)
(-7.10538e-15 0 0)
(1.42108e-14 0 0)
(-1.06581e-13 0 0)
(-6.39489e-14 0 0)
(7.10539e-15 0 0)
(-1.49214e-13 0 0)
(6.39488e-14 0 0)
(2.20268e-13 0 0)
(4.05009e-13 0 0)
(3.33955e-13 0 0)
(2.55795e-13 0 0)
(3.55271e-14 0 0)
(-5.68434e-14 0 0)
(-2.34479e-13 0 0)
(-1.06581e-13 0 0)
(1.86796e-20 0 0)
(-1.7053e-13 0 0)
(1.42109e-13 0 0)
(8.52652e-14 0 0)
(2.55795e-13 0 0)
(2.13163e-13 0 0)
(1.20792e-13 0 0)
(3.76588e-13 0 0)
(9.9476e-14 0 0)
(-5.68435e-14 0 0)
(-9.9476e-14 0 0)
(4.97381e-14 0 0)
(6.11067e-13 0 0)
(4.83169e-13 0 0)
(5.8975e-13 0 0)
(6.6791e-13 0 0)
(5.68434e-13 0 0)
(3.83693e-13 0 0)
(2.84217e-13 0 0)
(3.4106e-13 0 0)
(1.49214e-13 0 0)
(-2.84217e-14 0 0)
(-3.97904e-13 0 0)
(-5.25802e-13 0 0)
(-2.91323e-13 0 0)
(1.20792e-13 0 0)
(1.06581e-13 0 0)
(-1.7053e-13 0 0)
(-3.90798e-13 0 0)
(-5.47118e-13 0 0)
(-6.60805e-13 0 0)
(-3.41061e-13 0 0)
(7.10543e-14 0 0)
(2.13163e-13 0 0)
(1.7053e-13 0 0)
(4.9738e-14 0 0)
(-7.10541e-15 0 0)
(-7.81597e-14 0 0)
(-2.20268e-13 0 0)
(-1.63425e-13 0 0)
(-2.84217e-14 0 0)
(1.49214e-13 0 0)
(3.69482e-13 0 0)
(-1.42108e-14 0 0)
(2.55795e-13 0 0)
(3.12639e-13 0 0)
(1.49214e-13 0 0)
(2.06057e-13 0 0)
(7.1053e-15 0 0)
(-2.4869e-13 0 0)
(-2.27374e-13 0 0)
(-7.10549e-15 0 0)
(-5.68434e-14 0 0)
(1.06581e-13 0 0)
(1.98952e-13 0 0)
(3.33955e-13 0 0)
(1.42109e-14 0 0)
(-2.70006e-13 0 0)
(-2.13163e-13 0 0)
(-8.52651e-14 0 0)
(-2.91322e-13 0 0)
(-1.13687e-13 0 0)
(-2.84218e-14 0 0)
(1.01772e-19 0 0)
(1.06581e-13 0 0)
(9.94761e-14 0 0)
(2.34479e-13 0 0)
(-7.10542e-14 0 0)
(-1.42108e-14 0 0)
(1.92801e-20 0 0)
(1.77636e-13 0 0)
(2.91322e-13 0 0)
(3.55271e-13 0 0)
(7.03437e-13 0 0)
(4.83169e-13 0 0)
(2.13163e-13 0 0)
(1.91847e-13 0 0)
(5.68434e-14 0 0)
(7.10542e-14 0 0)
(2.34479e-13 0 0)
(1.49214e-13 0 0)
(1.20792e-13 0 0)
(1.63425e-13 0 0)
(-3.33955e-13 0 0)
(-2.4869e-13 0 0)
(-2.34479e-13 0 0)
(-7.81597e-14 0 0)
(-7.10542e-14 0 0)
(-2.13163e-14 0 0)
(-2.77112e-13 0 0)
(-4.47642e-13 0 0)
(-2.06057e-13 0 0)
(-2.34479e-13 0 0)
(-2.13164e-14 0 0)
(9.9476e-14 0 0)
(2.91323e-13 0 0)
(3.90799e-13 0 0)
(5.7554e-13 0 0)
(3.55271e-13 0 0)
(1.77636e-13 0 0)
(3.55271e-13 0 0)
(3.05533e-13 0 0)
(7.10543e-14 0 0)
(3.55271e-14 0 0)
(-1.98952e-13 0 0)
(1.63425e-13 0 0)
(4.61853e-13 0 0)
(3.90799e-13 0 0)
(2.55795e-13 0 0)
(-2.4869e-13 0 0)
(-4.12115e-13 0 0)
(-6.82121e-13 0 0)
(-4.90274e-13 0 0)
(-7.81598e-14 0 0)
(-3.55271e-14 0 0)
(-7.10543e-14 0 0)
(-3.2685e-13 0 0)
(-2.06057e-13 0 0)
(-1.20792e-13 0 0)
(-2.91323e-13 0 0)
(-4.68958e-13 0 0)
(-4.9738e-13 0 0)
(-3.19744e-13 0 0)
(-7.10543e-14 0 0)
(-3.55271e-14 0 0)
(-1.42108e-13 0 0)
(1.42108e-13 0 0)
(2.06057e-13 0 0)
(7.10538e-15 0 0)
(-1.63425e-13 0 0)
(-6.39488e-14 0 0)
(2.20268e-13 0 0)
(3.33955e-13 0 0)
(7.10543e-14 0 0)
(-3.19744e-13 0 0)
(-4.47642e-13 0 0)
(-6.25278e-13 0 0)
(-4.83169e-13 0 0)
(-5.32907e-13 0 0)
(-3.76588e-13 0 0)
(-1.27898e-13 0 0)
(-1.49214e-13 0 0)
(-2.06057e-13 0 0)
(2.84218e-14 0 0)
(7.81597e-14 0 0)
(1.98952e-13 0 0)
(3.55271e-13 0 0)
(1.20792e-13 0 0)
(-3.55271e-14 0 0)
(-2.77112e-13 0 0)
(-2.77112e-13 0 0)
(-4.1922e-13 0 0)
(-3.2685e-13 0 0)
(-2.77112e-13 0 0)
(-1.13687e-13 0 0)
(4.9738e-14 0 0)
(1.20792e-13 0 0)
(-7.10543e-14 0 0)
(-1.13687e-13 0 0)
(8.52651e-14 0 0)
(1.13687e-13 0 0)
(2.84217e-14 0 0)
(-8.52651e-14 0 0)
(-2.13163e-14 0 0)
(2.84216e-14 0 0)
(1.13687e-13 0 0)
(2.41585e-13 0 0)
(3.76588e-13 0 0)
(2.34479e-13 0 0)
(9.23705e-14 0 0)
(-7.10542e-14 0 0)
(-3.55271e-14 0 0)
(-2.62901e-13 0 0)
(-3.48166e-13 0 0)
(-5.04485e-13 0 0)
(-4.54747e-13 0 0)
(-2.41585e-13 0 0)
(-3.83693e-13 0 0)
(-3.69482e-13 0 0)
(2.84217e-14 0 0)
(3.62377e-13 0 0)
(3.90799e-13 0 0)
(2.06057e-13 0 0)
(1.27898e-13 0 0)
(2.13163e-13 0 0)
(6.39489e-14 0 0)
(1.91847e-13 0 0)
(8.52652e-14 0 0)
(1.7053e-13 0 0)
(3.05533e-13 0 0)
(2.91323e-13 0 0)
(1.27898e-13 0 0)
(-9.23706e-14 0 0)
(2.13162e-14 0 0)
(-7.81597e-14 0 0)
(-3.62377e-13 0 0)
(-3.76588e-13 0 0)
(2.41584e-13 0 0)
(2.70006e-13 0 0)
(2.70006e-13 0 0)
(2.84217e-13 0 0)
(-2.13163e-14 0 0)
(-2.70006e-13 0 0)
(-3.69482e-13 0 0)
(-3.55271e-13 0 0)
(-6.39488e-13 0 0)
(-4.33431e-13 0 0)
(-2.98428e-13 0 0)
(-2.84217e-13 0 0)
(2.84217e-14 0 0)
(1.13687e-13 0 0)
(2.34479e-13 0 0)
(3.05533e-13 0 0)
(-1.7053e-13 0 0)
(-3.12639e-13 0 0)
(-2.98428e-13 0 0)
(-1.77636e-13 0 0)
(-8.52651e-14 0 0)
(3.55271e-14 0 0)
(7.10541e-15 0 0)
(-3.83693e-13 0 0)
(-3.55271e-13 0 0)
(-1.49214e-13 0 0)
(1.49214e-13 0 0)
(1.91847e-13 0 0)
(2.13162e-14 0 0)
(4.12115e-13 0 0)
(3.62377e-13 0 0)
(-6.39488e-14 0 0)
(-1.35003e-13 0 0)
(6.39488e-14 0 0)
(7.10546e-15 0 0)
(7.81597e-14 0 0)
(4.47642e-13 0 0)
(5.25802e-13 0 0)
(5.40012e-13 0 0)
(2.70006e-13 0 0)
(3.33955e-13 0 0)
(1.42109e-13 0 0)
(2.84217e-14 0 0)
(4.9738e-14 0 0)
(-2.13163e-14 0 0)
(-1.13715e-20 0 0)
(9.23705e-14 0 0)
(2.77112e-13 0 0)
(3.90799e-13 0 0)
(2.84217e-13 0 0)
(9.23707e-14 0 0)
(1.13687e-13 0 0)
(-3.33955e-13 0 0)
(-3.33955e-13 0 0)
(-5.68434e-14 0 0)
(-1.35003e-13 0 0)
(-7.81598e-14 0 0)
(-2.4869e-13 0 0)
(-4.12115e-13 0 0)
(-4.26326e-14 0 0)
(7.81597e-14 0 0)
(2.13164e-14 0 0)
(-1.91847e-13 0 0)
(-1.91847e-13 0 0)
(2.13163e-14 0 0)
(-1.7053e-13 0 0)
(-3.05533e-13 0 0)
(-2.91323e-13 0 0)
(-1.56319e-13 0 0)
(-2.06057e-13 0 0)
(-1.35003e-13 0 0)
(-5.53075e-20 0 0)
(1.42109e-14 0 0)
(-2.13163e-14 0 0)
(-9.23705e-14 0 0)
(7.97343e-20 0 0)
(1.77636e-13 0 0)
(2.4869e-13 0 0)
(2.4869e-13 0 0)
(-2.84217e-14 0 0)
(-1.63425e-13 0 0)
(-9.23706e-14 0 0)
(-1.35003e-13 0 0)
(-9.23705e-14 0 0)
(1.7053e-13 0 0)
(2.41585e-13 0 0)
(4.40536e-13 0 0)
(4.47642e-13 0 0)
(2.62901e-13 0 0)
(-5.68434e-14 0 0)
(-1.84741e-13 0 0)
(-3.55271e-14 0 0)
(-1.63425e-13 0 0)
(-2.84218e-14 0 0)
(-1.42108e-14 0 0)
(2.84217e-14 0 0)
(2.62901e-13 0 0)
(4.68958e-13 0 0)
(5.40012e-13 0 0)
(2.55795e-13 0 0)
(2.84217e-14 0 0)
(9.23706e-14 0 0)
(-2.84218e-14 0 0)
(-1.98952e-13 0 0)
(-3.69482e-13 0 0)
(-5.11591e-13 0 0)
(-3.90798e-13 0 0)
(-3.12639e-13 0 0)
(-3.83693e-13 0 0)
(-4.83169e-13 0 0)
(-4.47642e-13 0 0)
(-2.84217e-14 0 0)
(1.27898e-13 0 0)
(-7.10543e-14 0 0)
(-1.06581e-13 0 0)
(3.55271e-14 0 0)
(5.68434e-14 0 0)
(2.84217e-14 0 0)
(-1.56319e-13 0 0)
(-1.27898e-13 0 0)
(1.13687e-13 0 0)
(2.91323e-13 0 0)
(2.55795e-13 0 0)
(6.39489e-14 0 0)
(-2.13163e-14 0 0)
(-7.10543e-14 0 0)
(-1.49214e-13 0 0)
(-6.39489e-14 0 0)
(-2.84217e-14 0 0)
(-1.91846e-13 0 0)
(-7.81597e-14 0 0)
(3.76588e-13 0 0)
(3.33955e-13 0 0)
(3.55271e-13 0 0)
(3.83693e-13 0 0)
(2.06057e-13 0 0)
(7.81597e-14 0 0)
(7.10543e-14 0 0)
(-6.39488e-14 0 0)
(3.55271e-14 0 0)
(-2.13162e-14 0 0)
(-2.13163e-13 0 0)
(-2.77112e-13 0 0)
(-2.55795e-13 0 0)
(1.13687e-13 0 0)
(4.97381e-14 0 0)
(2.55795e-13 0 0)
(1.42109e-13 0 0)
(2.41585e-13 0 0)
(3.97904e-13 0 0)
(3.12639e-13 0 0)
(3.05533e-13 0 0)
(2.20268e-13 0 0)
(8.52651e-14 0 0)
(4.97381e-14 0 0)
(1.63425e-13 0 0)
(3.90799e-13 0 0)
(2.4869e-13 0 0)
(2.13163e-14 0 0)
(2.06057e-13 0 0)
(2.20268e-13 0 0)
(4.26326e-14 0 0)
(1.42109e-14 0 0)
(-1.20792e-13 0 0)
(-1.84741e-13 0 0)
(1.42108e-14 0 0)
(-1.49214e-13 0 0)
(3.05533e-13 0 0)
(5.04485e-13 0 0)
(3.55271e-13 0 0)
(3.55271e-13 0 0)
(4.68958e-13 0 0)
(2.62901e-13 0 0)
(7.10555e-15 0 0)
(3.62377e-13 0 0)
(2.13163e-13 0 0)
(1.06581e-13 0 0)
(1.91847e-13 0 0)
(4.33431e-13 0 0)
(3.12639e-13 0 0)
(-2.06057e-13 0 0)
(-4.26327e-14 0 0)
(7.10544e-14 0 0)
(2.98428e-13 0 0)
(2.55795e-13 0 0)
(-2.27374e-13 0 0)
(-6.18172e-13 0 0)
(-4.68958e-13 0 0)
(-2.62901e-13 0 0)
(-5.68435e-14 0 0)
(-1.7053e-13 0 0)
(-3.62377e-13 0 0)
(-4.76064e-13 0 0)
(-5.40013e-13 0 0)
(-5.96856e-13 0 0)
(-5.96856e-13 0 0)
(-6.03961e-13 0 0)
(-4.33431e-13 0 0)
(-1.20792e-13 0 0)
(-1.13687e-13 0 0)
(2.20268e-13 0 0)
(-1.42108e-13 0 0)
(-1.27898e-13 0 0)
(2.84217e-14 0 0)
(-7.10543e-15 0 0)
(-2.84217e-14 0 0)
(1.42109e-14 0 0)
(-2.91323e-13 0 0)
(-5.68434e-13 0 0)
(-2.98428e-13 0 0)
(2.06057e-13 0 0)
(3.69482e-13 0 0)
(1.77636e-13 0 0)
(-9.9476e-14 0 0)
(-3.33955e-13 0 0)
(-2.84217e-13 0 0)
(-2.91322e-13 0 0)
(-1.77636e-13 0 0)
(-1.13687e-13 0 0)
(1.35003e-13 0 0)
(1.63425e-13 0 0)
(2.84217e-14 0 0)
(8.52651e-14 0 0)
(2.20268e-13 0 0)
(2.98428e-13 0 0)
(5.7554e-13 0 0)
(4.1922e-13 0 0)
(1.49214e-13 0 0)
(1.84741e-13 0 0)
(-1.42108e-14 0 0)
(9.23705e-14 0 0)
(2.13163e-14 0 0)
(-1.84741e-13 0 0)
(-5.68435e-14 0 0)
(-1.7053e-13 0 0)
(-8.52652e-14 0 0)
(1.20792e-13 0 0)
(2.13163e-13 0 0)
(2.06057e-13 0 0)
(-1.13687e-13 0 0)
(-1.91847e-13 0 0)
(-8.52651e-14 0 0)
(-1.98952e-13 0 0)
(-3.12639e-13 0 0)
(-9.23705e-14 0 0)
(1.56319e-13 0 0)
(1.42109e-13 0 0)
(9.9476e-14 0 0)
(1.42109e-14 0 0)
(3.55271e-14 0 0)
(2.84217e-14 0 0)
(-8.52651e-14 0 0)
(1.42109e-14 0 0)
(4.97379e-14 0 0)
(2.41585e-13 0 0)
(4.54747e-13 0 0)
(5.32907e-13 0 0)
(4.1922e-13 0 0)
(2.55795e-13 0 0)
(4.26326e-14 0 0)
(-1.49214e-13 0 0)
(-3.55271e-14 0 0)
(1.84741e-13 0 0)
(4.9738e-14 0 0)
(1.42108e-14 0 0)
(-2.80917e-20 0 0)
(-9.23705e-14 0 0)
(3.55271e-14 0 0)
(1.13687e-13 0 0)
(-1.06581e-13 0 0)
(-2.13163e-13 0 0)
(-2.77112e-13 0 0)
(-2.70006e-13 0 0)
(-2.98428e-13 0 0)
(-4.76064e-13 0 0)
(-4.76064e-13 0 0)
(-7.74492e-13 0 0)
(-8.31335e-13 0 0)
(-8.31335e-13 0 0)
(-6.89226e-13 0 0)
(-5.25802e-13 0 0)
(-3.76588e-13 0 0)
(-3.97904e-13 0 0)
(-3.41061e-13 0 0)
(-1.98952e-13 0 0)
(3.61686e-21 0 0)
(7.10539e-15 0 0)
(2.13164e-14 0 0)
(-7.10544e-14 0 0)
(-2.98428e-13 0 0)
(-9.9476e-14 0 0)
(-1.7053e-13 0 0)
(7.10538e-15 0 0)
(1.77636e-13 0 0)
(1.35003e-13 0 0)
(1.42108e-14 0 0)
(-2.70006e-13 0 0)
(-1.35003e-13 0 0)
(-2.84217e-14 0 0)
(1.56319e-13 0 0)
(3.12639e-13 0 0)
(3.90799e-13 0 0)
(3.05533e-13 0 0)
(5.96856e-13 0 0)
(4.61853e-13 0 0)
(2.27374e-13 0 0)
(9.9476e-14 0 0)
(4.9738e-14 0 0)
(8.52651e-14 0 0)
(7.10555e-15 0 0)
(1.7053e-13 0 0)
(1.56319e-13 0 0)
(3.90798e-13 0 0)
(1.98952e-13 0 0)
(2.41585e-13 0 0)
(3.97904e-13 0 0)
(3.55271e-13 0 0)
(2.98428e-13 0 0)
(1.56319e-13 0 0)
(2.27374e-13 0 0)
(-2.13163e-14 0 0)
(-2.55795e-13 0 0)
(6.39489e-14 0 0)
(1.27898e-13 0 0)
(-9.23706e-14 0 0)
(-3.12639e-13 0 0)
(-2.41585e-13 0 0)
(-4.12115e-13 0 0)
(-9.94761e-14 0 0)
(-7.10542e-14 0 0)
(-1.20792e-13 0 0)
(5.68434e-14 0 0)
(1.49214e-13 0 0)
(-3.55271e-14 0 0)
(-3.19744e-13 0 0)
(-8.52652e-14 0 0)
(-1.98952e-13 0 0)
(-4.1922e-13 0 0)
(-4.9738e-13 0 0)
(-3.69482e-13 0 0)
(-2.77112e-13 0 0)
(-1.49214e-13 0 0)
(-2.20268e-13 0 0)
(-1.98952e-13 0 0)
(-7.10548e-15 0 0)
(-2.84217e-14 0 0)
(4.26325e-14 0 0)
(2.84217e-14 0 0)
(7.10542e-14 0 0)
(-9.23706e-14 0 0)
(-1.56319e-13 0 0)
(-2.41585e-13 0 0)
(-1.63425e-13 0 0)
(7.81597e-14 0 0)
(4.9738e-14 0 0)
(-7.10543e-14 0 0)
(-1.63425e-13 0 0)
(1.13687e-13 0 0)
(2.34479e-13 0 0)
(1.06581e-13 0 0)
(-1.63425e-13 0 0)
(1.42107e-14 0 0)
(-1.13687e-13 0 0)
(7.10538e-15 0 0)
(4.9738e-14 0 0)
(-1.49214e-13 0 0)
(-5.68435e-14 0 0)
(6.39489e-14 0 0)
(-7.81597e-14 0 0)
(-2.62901e-13 0 0)
(-1.98952e-13 0 0)
(-2.27374e-13 0 0)
(-2.4869e-13 0 0)
(-4.26325e-14 0 0)
(2.34479e-13 0 0)
(4.26326e-14 0 0)
(5.68434e-14 0 0)
(-7.10542e-14 0 0)
(1.56319e-13 0 0)
(-4.9738e-14 0 0)
(-1.56319e-13 0 0)
(-1.06581e-13 0 0)
(-4.05009e-13 0 0)
(-2.77112e-13 0 0)
(-2.13163e-13 0 0)
(-1.27898e-13 0 0)
(7.81597e-14 0 0)
(-1.77636e-13 0 0)
(-2.84217e-13 0 0)
(-3.33955e-13 0 0)
(-2.20268e-13 0 0)
(2.84217e-14 0 0)
(-7.10538e-15 0 0)
(-4.26326e-14 0 0)
(-2.77112e-13 0 0)
(1.06581e-13 0 0)
(3.97904e-13 0 0)
(2.06057e-13 0 0)
(3.55271e-14 0 0)
(-3.05533e-13 0 0)
(-2.70006e-13 0 0)
(-1.84741e-13 0 0)
(-3.2685e-13 0 0)
(-3.90799e-13 0 0)
(-3.97904e-13 0 0)
(-4.61853e-13 0 0)
(-4.54747e-13 0 0)
(-1.63425e-13 0 0)
(-2.20268e-13 0 0)
(-3.55271e-13 0 0)
(-5.8975e-13 0 0)
(-4.33431e-13 0 0)
(-4.40536e-13 0 0)
(-4.54747e-13 0 0)
(-3.90799e-13 0 0)
(-3.19744e-13 0 0)
(-2.84217e-14 0 0)
(-1.84741e-13 0 0)
(-2.34479e-13 0 0)
(-3.33955e-13 0 0)
(-7.60281e-13 0 0)
(-6.75016e-13 0 0)
(-6.11067e-13 0 0)
(-7.88702e-13 0 0)
(-8.52651e-13 0 0)
(-1.05871e-12 0 0)
(-9.52127e-13 0 0)
(-7.95808e-13 0 0)
(-9.52127e-13 0 0)
(-9.87654e-13 0 0)
(-9.02389e-13 0 0)
(-7.81597e-13 0 0)
(-6.60805e-13 0 0)
(-4.76064e-13 0 0)
(-3.69482e-13 0 0)
(-3.19744e-13 0 0)
(-1.06581e-13 0 0)
(1.20792e-13 0 0)
(3.41061e-13 0 0)
(1.7053e-13 0 0)
(6.39489e-14 0 0)
(1.42108e-14 0 0)
(9.23706e-14 0 0)
(1.49214e-13 0 0)
(3.55271e-13 0 0)
(7.24754e-13 0 0)
(1.9682e-12 0 0)
(6.52989e-12 0 0)
(2.0222e-11 0 0)
(6.04814e-11 0 0)
(1.75525e-10 0 0)
(4.99952e-10 0 0)
(1.40273e-09 0 0)
(3.87416e-09 0 0)
(1.05307e-08 0 0)
(2.81612e-08 0 0)
(7.40575e-08 0 0)
(1.91417e-07 0 0)
(4.86016e-07 0 0)
(1.21155e-06 0 0)
(2.96343e-06 0 0)
(7.10793e-06 0 0)
(1.67072e-05 0 0)
(3.84573e-05 0 0)
(8.66268e-05 0 0)
(0.000190806 0 0)
(0.00041063 0 0)
(0.000862697 0 0)
(0.00176778 0 0)
(0.00352983 0 0)
(0.00686143 0 0)
(0.012971 0 0)
(0.023822 0 0)
(0.0424602 0 0)
(0.0733733 0 0)
(0.122807 0 0)
(0.198909 0 0)
(0.311534 0 0)
(0.471568 0 0)
(0.689691 0 0)
(0.974715 0 0)
(1.33181 0 0)
(1.76115 0 0)
(2.25756 0 0)
(2.81133 0 0)
(3.41022 0 0)
(4.04182 0 0)
(4.69558 0 0)
(5.36377 0 0)
(6.04138 0 0)
(6.7254 0 0)
(7.41414 0 0)
(8.10663 0 0)
(8.8023 0 0)
(9.50081 0 0)
(10.2019 0 0)
(10.9054 0 0)
(11.6112 0 0)
(12.3191 0 0)
(13.0293 0 0)
(13.7415 0 0)
(14.4561 0 0)
(15.1716 0 0)
(15.8938 0 0)
(16.6026 0 0)
(17.3601 0 0)
(17.9954 0 0)
(18.8883 0 0)
(19.3068 0 0)
(20.6764 0 0)
)
;

boundaryField
{
    sideLeft
    {
        type            symmetryPlane;
    }
    sideRight
    {
        type            zeroGradient;
    }
    topbottom
    {
        type            empty;
    }
    frontback
    {
        type            empty;
    }
}


// ************************************************************************* //
