/*--------------------------------*- C++ -*----------------------------------*\
| =========                 |                                                 |
| \\      /  F ield         | OpenFOAM: The Open Source CFD Toolbox           |
|  \\    /   O peration     | Version:  2.4.0                                 |
|   \\  /    A nd           | Web:      www.OpenFOAM.org                      |
|    \\/     M anipulation  |                                                 |
\*---------------------------------------------------------------------------*/
FoamFile
{
    version     2.0;
    format      ascii;
    class       volScalarField;
    location    "0.18";
    object      p;
}
// * * * * * * * * * * * * * * * * * * * * * * * * * * * * * * * * * * * * * //

dimensions      [1 -1 -2 0 0 0 0];

internalField   nonuniform List<scalar> 
1000
(
5e+06
5e+06
5e+06
5e+06
5e+06
5e+06
5e+06
5e+06
5e+06
5e+06
5e+06
5e+06
5e+06
5e+06
5e+06
5e+06
5e+06
5e+06
5e+06
5e+06
5e+06
5e+06
5e+06
5e+06
5e+06
5e+06
5e+06
5e+06
5e+06
5e+06
5e+06
5e+06
5e+06
5e+06
5e+06
5e+06
5e+06
5e+06
5e+06
5e+06
5e+06
5e+06
5e+06
5e+06
5e+06
5e+06
5e+06
5e+06
5e+06
5e+06
5e+06
5e+06
5e+06
5e+06
5e+06
5e+06
5e+06
5e+06
5e+06
5e+06
5e+06
5e+06
5e+06
5e+06
5e+06
5e+06
5e+06
5e+06
5e+06
5e+06
5e+06
5e+06
5e+06
5e+06
5e+06
5e+06
5e+06
5e+06
5e+06
5e+06
5e+06
5e+06
5e+06
5e+06
5e+06
5e+06
5e+06
5e+06
5e+06
5e+06
5e+06
5e+06
5e+06
5e+06
5e+06
5e+06
5e+06
5e+06
5e+06
5e+06
5e+06
5e+06
5e+06
5e+06
5e+06
5e+06
5e+06
5e+06
5e+06
5e+06
5e+06
5e+06
5e+06
5e+06
5e+06
5e+06
5e+06
5e+06
5e+06
5e+06
5e+06
5e+06
5e+06
5e+06
5e+06
5e+06
5e+06
5e+06
5e+06
5e+06
5e+06
5e+06
5e+06
5e+06
5e+06
5e+06
5e+06
5e+06
5e+06
5e+06
5e+06
5e+06
5e+06
5e+06
5e+06
5e+06
5e+06
5e+06
5e+06
5e+06
5e+06
5e+06
5e+06
5e+06
5e+06
5e+06
5e+06
5e+06
5e+06
5e+06
5e+06
5e+06
5e+06
5e+06
5e+06
5e+06
5e+06
5e+06
5e+06
5e+06
5e+06
5e+06
5e+06
5e+06
5e+06
5e+06
5e+06
5e+06
5e+06
5e+06
5e+06
5e+06
5e+06
5e+06
5e+06
5e+06
5e+06
5e+06
5e+06
5e+06
5e+06
5e+06
5e+06
5e+06
5e+06
5e+06
5e+06
5e+06
5e+06
5e+06
5e+06
5e+06
5e+06
5e+06
5e+06
5e+06
5e+06
5e+06
5e+06
5e+06
5e+06
5e+06
5e+06
5e+06
5e+06
5e+06
5e+06
5e+06
5e+06
5e+06
5e+06
5e+06
5e+06
5e+06
5e+06
5e+06
5e+06
5e+06
5e+06
5e+06
5e+06
5e+06
5e+06
5e+06
5e+06
5e+06
5e+06
5e+06
5e+06
5e+06
5e+06
5e+06
5e+06
5e+06
5e+06
5e+06
5e+06
5e+06
5e+06
5e+06
5e+06
5e+06
5e+06
5e+06
5e+06
5e+06
5e+06
5e+06
5e+06
5e+06
5e+06
5e+06
5e+06
5e+06
5e+06
5e+06
5e+06
5e+06
5e+06
5e+06
5e+06
5e+06
5e+06
5e+06
5e+06
5e+06
5e+06
5e+06
5e+06
5e+06
5e+06
5e+06
5e+06
5e+06
5e+06
5e+06
5e+06
5e+06
5e+06
5e+06
5e+06
5e+06
5e+06
5e+06
5e+06
5e+06
5e+06
5e+06
5e+06
5e+06
5e+06
5e+06
5e+06
5e+06
5e+06
5e+06
5e+06
5e+06
5e+06
5e+06
5e+06
5e+06
5e+06
5e+06
5e+06
5e+06
5e+06
5e+06
5e+06
5e+06
5e+06
5e+06
5e+06
5e+06
5e+06
5e+06
5e+06
5e+06
5e+06
5e+06
5e+06
5e+06
5e+06
5e+06
5e+06
5e+06
5e+06
5e+06
5e+06
5e+06
5e+06
5e+06
5e+06
5e+06
5e+06
5e+06
5e+06
5e+06
5e+06
5e+06
5e+06
5e+06
5e+06
5e+06
5e+06
5e+06
5e+06
5e+06
5e+06
5e+06
5e+06
5e+06
5e+06
5e+06
5e+06
5e+06
5e+06
5e+06
5e+06
5e+06
5e+06
5e+06
5e+06
5e+06
5e+06
5e+06
5e+06
5e+06
5e+06
5e+06
5e+06
5e+06
5e+06
5e+06
5e+06
5e+06
5e+06
5e+06
5e+06
5e+06
5e+06
5e+06
5e+06
5e+06
5e+06
5e+06
5e+06
5e+06
5e+06
5e+06
5e+06
4.99999e+06
4.99999e+06
4.99999e+06
4.99999e+06
4.99998e+06
4.99998e+06
4.99997e+06
4.99997e+06
4.99996e+06
4.99995e+06
4.99993e+06
4.99992e+06
4.9999e+06
4.99987e+06
4.99984e+06
4.9998e+06
4.99976e+06
4.99971e+06
4.99964e+06
4.99956e+06
4.99947e+06
4.99936e+06
4.99923e+06
4.99908e+06
4.9989e+06
4.99869e+06
4.99844e+06
4.99816e+06
4.99783e+06
4.99745e+06
4.99702e+06
4.99653e+06
4.99597e+06
4.99534e+06
4.99463e+06
4.99383e+06
4.99293e+06
4.99194e+06
4.99083e+06
4.98961e+06
4.98827e+06
4.9868e+06
4.98519e+06
4.98344e+06
4.98154e+06
4.97948e+06
4.97727e+06
4.9749e+06
4.97236e+06
4.96965e+06
4.96677e+06
4.96371e+06
4.96049e+06
4.95709e+06
4.95352e+06
4.94978e+06
4.94588e+06
4.9418e+06
4.93757e+06
4.93317e+06
4.92862e+06
4.92393e+06
4.91909e+06
4.91411e+06
4.90899e+06
4.90375e+06
4.89839e+06
4.89292e+06
4.88734e+06
4.88165e+06
4.87587e+06
4.87e+06
4.86404e+06
4.85801e+06
4.85191e+06
4.84574e+06
4.83951e+06
4.83322e+06
4.82689e+06
4.82051e+06
4.81409e+06
4.80763e+06
4.80114e+06
4.79462e+06
4.78808e+06
4.78152e+06
4.77494e+06
4.76834e+06
4.76173e+06
4.75511e+06
4.74849e+06
4.74186e+06
4.73523e+06
4.72859e+06
4.72196e+06
4.71533e+06
4.7087e+06
4.70208e+06
4.69546e+06
4.68885e+06
4.68224e+06
4.67564e+06
4.66906e+06
4.66248e+06
4.65591e+06
4.64935e+06
4.6428e+06
4.63626e+06
4.62974e+06
4.62322e+06
4.61672e+06
4.61023e+06
4.60374e+06
4.59727e+06
4.59082e+06
4.58437e+06
4.57793e+06
4.57151e+06
4.5651e+06
4.5587e+06
4.55231e+06
4.54593e+06
4.53956e+06
4.5332e+06
4.52685e+06
4.52052e+06
4.51419e+06
4.50787e+06
4.50157e+06
4.49527e+06
4.48899e+06
4.48271e+06
4.47645e+06
4.47019e+06
4.46394e+06
4.4577e+06
4.45147e+06
4.44525e+06
4.43904e+06
4.43284e+06
4.42665e+06
4.42046e+06
4.41428e+06
4.40812e+06
4.40196e+06
4.3958e+06
4.38966e+06
4.38352e+06
4.37739e+06
4.37127e+06
4.36516e+06
4.35905e+06
4.35295e+06
4.34686e+06
4.34078e+06
4.3347e+06
4.32863e+06
4.32257e+06
4.31651e+06
4.31046e+06
4.30442e+06
4.29839e+06
4.29236e+06
4.28634e+06
4.28032e+06
4.27431e+06
4.26831e+06
4.26231e+06
4.25632e+06
4.25034e+06
4.24436e+06
4.23839e+06
4.23243e+06
4.22647e+06
4.22052e+06
4.21457e+06
4.20863e+06
4.2027e+06
4.19677e+06
4.19085e+06
4.18493e+06
4.17902e+06
4.17312e+06
4.16722e+06
4.16133e+06
4.15544e+06
4.14956e+06
4.14369e+06
4.13782e+06
4.13195e+06
4.12609e+06
4.12024e+06
4.11439e+06
4.10855e+06
4.10271e+06
4.09688e+06
4.09105e+06
4.08523e+06
4.07942e+06
4.0736e+06
4.0678e+06
4.062e+06
4.0562e+06
4.05041e+06
4.04462e+06
4.03884e+06
4.03306e+06
4.02729e+06
4.02152e+06
4.01576e+06
4.01e+06
4.00425e+06
3.9985e+06
3.99275e+06
3.98701e+06
3.98127e+06
3.97554e+06
3.96981e+06
3.96409e+06
3.95836e+06
3.95265e+06
3.94693e+06
3.94123e+06
3.93552e+06
3.92982e+06
3.92412e+06
3.91843e+06
3.91273e+06
3.90705e+06
3.90136e+06
3.89568e+06
3.89e+06
3.88433e+06
3.87866e+06
3.87299e+06
3.86733e+06
3.86167e+06
3.85601e+06
3.85035e+06
3.8447e+06
3.83905e+06
3.83341e+06
3.82776e+06
3.82212e+06
3.81649e+06
3.81085e+06
3.80522e+06
3.79959e+06
3.79396e+06
3.78834e+06
3.78272e+06
3.7771e+06
3.77148e+06
3.76587e+06
3.76026e+06
3.75465e+06
3.74904e+06
3.74343e+06
3.73783e+06
3.73223e+06
3.72663e+06
3.72103e+06
3.71544e+06
3.70985e+06
3.70425e+06
3.69867e+06
3.69308e+06
3.68749e+06
3.68191e+06
3.67633e+06
3.67075e+06
3.66517e+06
3.65959e+06
3.65401e+06
3.64844e+06
3.64286e+06
3.63729e+06
3.63172e+06
3.62615e+06
3.62058e+06
3.61502e+06
3.60945e+06
3.60388e+06
3.59832e+06
3.59275e+06
3.58719e+06
3.58163e+06
3.57607e+06
3.5705e+06
3.56494e+06
3.55938e+06
3.55382e+06
3.54826e+06
3.5427e+06
3.53715e+06
3.53159e+06
3.52603e+06
3.52047e+06
3.51491e+06
3.50935e+06
3.50379e+06
3.49823e+06
3.49268e+06
3.48712e+06
3.48156e+06
3.476e+06
3.47043e+06
3.46487e+06
3.45931e+06
3.45375e+06
3.44819e+06
3.44262e+06
3.43706e+06
3.43149e+06
3.42592e+06
3.42036e+06
3.41479e+06
3.40922e+06
3.40364e+06
3.39807e+06
3.3925e+06
3.38692e+06
3.38134e+06
3.37576e+06
3.37018e+06
3.3646e+06
3.35901e+06
3.35342e+06
3.34783e+06
3.34224e+06
3.33665e+06
3.33105e+06
3.32545e+06
3.31985e+06
3.31425e+06
3.30864e+06
3.30303e+06
3.29742e+06
3.2918e+06
3.28618e+06
3.28056e+06
3.27493e+06
3.2693e+06
3.26367e+06
3.25803e+06
3.25239e+06
3.24675e+06
3.2411e+06
3.23545e+06
3.22979e+06
3.22413e+06
3.21846e+06
3.21279e+06
3.20711e+06
3.20143e+06
3.19575e+06
3.19005e+06
3.18436e+06
3.17866e+06
3.17296e+06
3.16725e+06
3.16154e+06
3.15582e+06
3.15008e+06
3.14434e+06
3.1386e+06
3.13285e+06
3.12709e+06
3.12133e+06
3.11556e+06
3.10978e+06
3.104e+06
3.0982e+06
3.0924e+06
3.08659e+06
3.08078e+06
3.07495e+06
3.06912e+06
3.06327e+06
3.05742e+06
3.05157e+06
3.0457e+06
3.03982e+06
3.03394e+06
3.02804e+06
3.02213e+06
3.01621e+06
3.01028e+06
3.00434e+06
2.99839e+06
2.99242e+06
2.98645e+06
2.98046e+06
2.97447e+06
2.96846e+06
2.96243e+06
2.9564e+06
2.95034e+06
2.94429e+06
2.93821e+06
2.93212e+06
2.92601e+06
2.91989e+06
2.91376e+06
2.90761e+06
2.90144e+06
2.89526e+06
2.88906e+06
2.88285e+06
2.87662e+06
2.87036e+06
2.8641e+06
2.85781e+06
2.8515e+06
2.84517e+06
2.83883e+06
2.83246e+06
2.82607e+06
2.81966e+06
2.81323e+06
2.80677e+06
2.8003e+06
2.79379e+06
2.78727e+06
2.78072e+06
2.77414e+06
2.76754e+06
2.76091e+06
2.75425e+06
2.74757e+06
2.74085e+06
2.73411e+06
2.72733e+06
2.72053e+06
2.71369e+06
2.70682e+06
2.69991e+06
2.69297e+06
2.68599e+06
2.67898e+06
2.67193e+06
2.66484e+06
2.65771e+06
2.65054e+06
2.64332e+06
2.63606e+06
2.62875e+06
2.6214e+06
2.614e+06
2.60655e+06
2.59904e+06
2.59148e+06
2.58387e+06
2.5762e+06
2.56847e+06
2.56068e+06
2.55283e+06
2.5449e+06
2.53691e+06
2.52885e+06
2.52071e+06
2.51249e+06
2.50419e+06
2.49581e+06
2.48733e+06
2.47877e+06
2.4701e+06
2.46133e+06
2.45246e+06
2.44347e+06
2.43435e+06
2.42511e+06
2.41574e+06
2.40623e+06
2.39656e+06
2.38674e+06
2.37674e+06
2.36656e+06
2.35618e+06
2.3456e+06
2.33479e+06
2.32374e+06
2.31241e+06
2.30079e+06
2.28884e+06
2.27654e+06
2.26386e+06
2.25081e+06
2.23735e+06
2.22347e+06
2.20911e+06
2.19421e+06
2.17873e+06
2.16263e+06
2.14593e+06
2.12864e+06
2.11083e+06
2.09253e+06
2.07382e+06
2.05475e+06
2.03599e+06
2.01795e+06
2.00088e+06
1.98492e+06
1.97009e+06
1.95634e+06
1.94348e+06
1.93134e+06
1.91972e+06
1.90848e+06
1.89748e+06
1.8866e+06
1.87571e+06
1.86472e+06
1.85355e+06
1.84216e+06
1.83054e+06
1.8187e+06
1.80665e+06
1.79441e+06
1.78203e+06
1.76952e+06
1.75693e+06
1.74427e+06
1.73158e+06
1.71888e+06
1.70618e+06
1.6935e+06
1.68083e+06
1.66818e+06
1.65553e+06
1.6429e+06
1.63027e+06
1.61765e+06
1.60501e+06
1.59237e+06
1.57971e+06
1.56703e+06
1.55433e+06
1.54162e+06
1.52887e+06
1.51611e+06
1.50333e+06
1.49052e+06
1.4777e+06
1.46485e+06
1.45201e+06
1.43914e+06
1.42626e+06
1.41337e+06
1.40048e+06
1.38758e+06
1.37466e+06
1.36175e+06
1.34882e+06
1.33589e+06
1.32295e+06
1.31001e+06
1.29706e+06
1.28409e+06
1.27113e+06
1.25816e+06
1.24518e+06
1.23219e+06
1.21918e+06
1.20617e+06
1.19317e+06
1.18016e+06
1.16713e+06
1.15408e+06
1.14101e+06
1.12795e+06
1.11491e+06
1.10185e+06
1.08877e+06
1.07566e+06
1.06255e+06
1.04945e+06
1.03635e+06
1.02324e+06
1.01012e+06
996978
983829
970689
957546
944420
931261
918136
904975
891845
878515
865307
852969
840109
825269
809557
796231
798757
809379
)
;

boundaryField
{
    sideLeft
    {
        type            symmetryPlane;
    }
    sideRight
    {
        type            myWaveTransmissive;
        phi             phi.air;
        rho             rho.air;
        psi             thermo:psi.air;
        gamma           1.4;
        fieldInf        100000;
        lInf            10;
        value           uniform 808803;
    }
    topbottom
    {
        type            empty;
    }
    frontback
    {
        type            empty;
    }
}


// ************************************************************************* //
