/*--------------------------------*- C++ -*----------------------------------*\
| =========                 |                                                 |
| \\      /  F ield         | OpenFOAM: The Open Source CFD Toolbox           |
|  \\    /   O peration     | Version:  2.4.0                                 |
|   \\  /    A nd           | Web:      www.OpenFOAM.org                      |
|    \\/     M anipulation  |                                                 |
\*---------------------------------------------------------------------------*/
FoamFile
{
    version     2.0;
    format      ascii;
    class       surfaceScalarField;
    location    "0.18";
    object      phi.water;
}
// * * * * * * * * * * * * * * * * * * * * * * * * * * * * * * * * * * * * * //

dimensions      [0 3 -1 0 0 0 0];

internalField   nonuniform List<scalar> 
999
(
1.42111e-13
-1.71527e-13
1.95251e-13
2.17282e-13
5.88365e-13
2.40885e-12
2.0061e-12
3.07948e-12
3.43879e-12
4.22044e-12
4.14107e-12
4.29495e-12
4.90305e-12
3.61352e-12
4.11816e-12
3.89968e-12
1.46179e-12
2.42318e-12
1.93858e-12
1.94433e-12
6.00546e-13
7.1522e-13
1.36977e-12
1.46558e-12
2.05513e-12
1.62531e-12
2.0666e-12
2.27374e-13
-4.36414e-13
-1.6861e-12
-1.39305e-12
-1.24015e-12
-1.803e-13
4.97379e-13
2.12704e-13
-6.29167e-13
-8.45908e-13
-3.36553e-13
-1.1937e-13
3.02589e-13
5.8287e-13
6.67911e-13
1.38398e-12
8.64809e-13
8.57768e-13
7.32002e-13
8.2423e-13
7.1748e-13
2.03288e-13
4.22742e-13
1.13225e-12
1.45509e-12
1.45343e-12
8.01045e-13
1.02772e-12
1.44235e-12
1.87832e-12
1.2722e-12
1.21441e-12
7.07892e-13
8.02311e-13
-2.5077e-13
-2.24043e-12
-1.18272e-12
-9.66933e-13
-1.24583e-12
-9.99089e-13
-1.53536e-12
-1.61776e-13
-5.78733e-13
-1.81411e-13
6.07644e-13
8.03902e-13
1.60074e-12
1.94596e-12
1.73434e-12
1.78131e-12
1.73133e-12
1.09796e-12
1.1775e-12
1.55611e-12
2.70425e-12
3.03613e-12
2.08759e-12
2.60895e-12
1.67239e-12
1.74815e-12
2.75066e-12
2.13965e-12
2.33885e-12
2.99345e-12
2.89265e-12
4.16661e-12
3.96494e-12
3.57727e-12
4.84339e-12
4.4558e-12
4.89506e-12
5.16313e-12
4.28672e-12
5.55435e-12
4.87285e-12
4.42805e-12
3.50073e-12
3.27366e-12
3.3575e-12
2.17881e-12
3.86867e-12
3.1188e-12
4.06007e-12
3.22043e-12
3.15032e-12
2.11104e-12
1.3242e-12
1.16313e-12
2.74454e-12
2.5553e-12
2.9685e-12
4.22596e-12
4.56362e-12
3.02729e-12
3.8328e-12
2.4574e-12
8.91434e-13
1.61018e-12
2.64097e-12
1.88835e-12
2.85432e-12
2.0239e-12
9.97209e-13
7.15163e-13
5.68435e-13
6.83821e-13
3.77334e-13
1.79327e-12
2.3422e-13
-6.32393e-13
-8.63024e-13
-1.04077e-12
-2.71554e-12
-2.00428e-12
-3.14449e-12
-4.1157e-12
-3.31427e-12
-4.14079e-12
-3.5474e-12
-2.17481e-12
-2.04045e-12
-6.91068e-13
8.91336e-13
4.57235e-13
1.56491e-12
2.0271e-12
2.00277e-12
2.71718e-12
2.92462e-12
3.04446e-12
3.00605e-12
2.99806e-12
3.09683e-12
3.33309e-12
3.51118e-12
4.02608e-12
2.50407e-12
2.73341e-12
3.00741e-12
2.08511e-12
2.09007e-12
6.33037e-13
9.01597e-13
7.48592e-13
6.37385e-13
-3.60145e-13
-7.53698e-13
-1.81475e-12
-1.71716e-12
1.98952e-13
-5.99605e-15
1.85124e-12
1.17864e-12
7.33365e-13
6.32332e-13
-7.26814e-14
-8.12247e-13
-4.18343e-13
-6.31553e-13
-1.62767e-12
-1.35525e-12
-2.31697e-12
-1.23781e-12
-1.46709e-12
-3.10387e-12
-2.44368e-12
-2.71713e-12
-2.14251e-12
-2.17157e-12
-1.5097e-12
-2.09216e-12
-1.68688e-12
-1.8962e-12
-2.16597e-12
-2.03074e-12
-1.91092e-12
-7.31712e-13
1.84275e-13
8.49217e-13
1.10896e-13
7.89119e-13
8.81073e-13
1.39168e-12
1.67716e-12
1.89827e-13
1.60992e-13
1.1713e-12
2.01511e-12
2.37746e-12
1.90222e-12
2.47126e-12
1.96829e-12
8.67005e-13
5.53631e-13
2.01448e-12
2.64506e-12
2.73976e-12
1.82847e-12
2.73278e-12
1.84333e-12
2.15796e-12
1.11791e-12
6.58838e-13
1.65883e-12
1.06663e-12
2.77195e-12
1.74635e-12
2.25299e-12
1.54211e-12
1.33744e-12
1.32157e-12
1.92828e-12
2.38967e-12
1.99828e-12
1.0859e-12
2.09537e-12
2.74732e-12
2.65663e-12
1.31218e-12
1.27616e-12
1.22245e-12
3.52063e-13
2.50957e-13
1.13464e-12
1.49204e-12
8.8756e-13
2.30772e-12
3.45604e-12
1.91433e-12
1.76521e-12
1.24518e-12
1.72113e-12
2.06815e-12
3.34041e-12
3.94389e-12
3.26931e-12
2.92355e-12
3.33906e-12
3.72115e-12
3.19246e-12
3.47375e-12
4.28631e-12
4.96412e-12
4.63528e-12
5.1634e-12
5.40127e-12
6.40982e-12
7.38565e-12
6.82973e-12
6.56068e-12
6.07958e-12
5.60487e-12
6.00573e-12
7.3634e-12
8.11712e-12
5.92153e-12
5.62432e-12
4.78417e-12
4.12411e-12
4.48639e-12
4.35856e-12
4.12831e-12
3.48628e-12
2.38028e-12
2.06429e-12
3.06437e-12
3.34894e-12
2.41975e-12
3.47372e-12
4.09495e-12
3.3926e-12
3.84592e-12
2.50609e-12
1.91662e-12
8.83589e-13
1.37498e-12
-6.91175e-14
-8.8804e-13
-6.55205e-13
-3.55271e-13
-9.4485e-13
-8.26876e-13
-1.05847e-12
-4.88258e-13
1.4211e-13
3.5278e-13
1.97764e-14
9.10914e-13
7.10542e-13
2.10353e-12
1.75779e-12
3.08511e-12
1.67879e-12
1.1448e-12
6.80715e-13
6.65259e-13
-2.9902e-13
-1.13688e-13
-3.59181e-13
7.90902e-13
2.60049e-12
1.56786e-12
1.5864e-12
2.25334e-12
2.34578e-12
1.39531e-12
1.37359e-12
2.65268e-12
2.66081e-12
1.6311e-12
2.34737e-12
1.6983e-12
2.06949e-12
3.54569e-12
4.15794e-12
5.98551e-12
7.70091e-12
9.40943e-12
1.14489e-11
1.66144e-11
2.07956e-11
2.72422e-11
3.70295e-11
5.22988e-11
7.47967e-11
1.08277e-10
1.57565e-10
2.3176e-10
3.42692e-10
5.03036e-10
7.43258e-10
1.09232e-09
1.60114e-09
2.34281e-09
3.41962e-09
4.97611e-09
7.22509e-09
1.04616e-08
1.51076e-08
2.17545e-08
3.124e-08
4.47367e-08
6.38848e-08
9.09713e-08
1.29177e-07
1.82908e-07
2.58245e-07
3.63563e-07
5.10357e-07
7.14336e-07
9.96934e-07
1.38725e-06
1.92471e-06
2.6625e-06
3.67218e-06
5.04962e-06
6.92293e-06
9.46263e-06
1.28949e-05
1.75186e-05
2.37276e-05
3.20386e-05
4.31272e-05
5.78736e-05
7.74205e-05
0.000103245
0.000137252
0.000181883
0.000240262
0.000316368
0.000415246
0.000543273
0.000708474
0.000920907
0.00119313
0.00154075
0.0019831
0.00254399
0.00325266
0.00414485
0.00526403
0.00666286
0.00840484
0.0105662
0.0132379
0.0165283
0.0205654
0.0255
0.0315089
0.038798
0.047606
0.0582086
0.0709217
0.0861061
0.104171
0.125579
0.150847
0.180553
0.215337
0.255906
0.303031
0.357552
0.420375
0.492475
0.574888
0.668712
0.775098
0.895247
1.0304
1.18183
1.35083
1.5387
1.74675
1.97626
2.2285
2.50466
2.80593
3.13339
3.48806
3.87085
4.2826
4.72401
5.19567
5.69808
6.23156
6.79635
7.39253
8.02007
8.6788
9.36847
10.0887
10.8389
11.6185
12.4269
13.2633
14.1268
15.0165
15.9315
16.8707
17.8332
18.8178
19.8234
20.8491
21.8936
22.9559
24.0348
25.1295
26.2387
27.3615
28.4969
29.644
30.8017
31.9693
33.1459
34.3307
35.523
36.7219
37.9269
39.1373
40.3525
41.5719
42.7951
44.0215
45.2506
46.4822
47.7158
48.951
50.1876
51.4253
52.6638
53.9028
55.1422
56.3818
57.6214
58.8609
60.1001
61.339
62.5774
63.8152
65.0524
66.2889
67.5247
68.7598
69.994
71.2275
72.4601
73.6918
74.9227
76.1528
77.382
78.6104
79.8379
81.0646
82.2906
83.5157
84.7401
85.9637
87.1866
88.4089
89.6304
90.8513
92.0716
93.2912
94.5103
95.7289
96.9469
98.1644
99.3815
100.598
101.814
103.03
104.245
105.46
106.675
107.889
109.104
110.317
111.531
112.744
113.957
115.17
116.383
117.596
118.808
120.021
121.233
122.446
123.658
124.87
126.082
127.294
128.506
129.718
130.931
132.143
133.355
134.567
135.78
136.992
138.205
139.418
140.63
141.843
143.056
144.27
145.483
146.697
147.91
149.124
150.338
151.553
152.767
153.982
155.197
156.412
157.628
158.843
160.059
161.275
162.492
163.709
164.926
166.143
167.361
168.579
169.797
171.016
172.235
173.454
174.674
175.894
177.115
178.336
179.557
180.779
182.001
183.224
184.447
185.671
186.895
188.12
189.345
190.571
191.798
193.024
194.252
195.48
196.709
197.938
199.168
200.399
201.63
202.862
204.095
205.328
206.562
207.797
209.032
210.268
211.506
212.743
213.982
215.221
216.462
217.703
218.945
220.188
221.431
222.676
223.921
225.168
226.415
227.663
228.912
230.162
231.414
232.666
233.919
235.173
236.428
237.684
238.941
240.199
241.459
242.719
243.981
245.243
246.507
247.772
249.038
250.305
251.573
252.843
254.114
255.385
256.659
257.933
259.209
260.486
261.764
263.044
264.324
265.607
266.89
268.175
269.462
270.749
272.039
273.329
274.621
275.915
277.21
278.506
279.804
281.104
282.405
283.708
285.012
286.318
287.626
288.935
290.246
291.558
292.873
294.189
295.507
296.826
298.147
299.47
300.795
302.122
303.451
304.781
306.114
307.448
308.785
310.123
311.463
312.805
314.15
315.496
316.845
318.195
319.548
320.903
322.26
323.619
324.98
326.344
327.71
329.078
330.449
331.822
333.197
334.575
335.955
337.338
338.723
340.111
341.501
342.894
344.29
345.688
347.088
348.492
349.898
351.307
352.719
354.134
355.551
356.972
358.395
359.822
361.251
362.684
364.119
365.558
367
368.445
369.894
371.346
372.801
374.259
375.722
377.187
378.656
380.128
381.605
383.085
384.569
386.056
387.547
389.041
390.539
392.04
393.546
395.057
396.573
398.093
399.616
401.144
402.677
404.213
405.755
407.3
408.85
410.405
411.965
413.53
415.1
416.674
418.255
419.839
421.429
423.023
424.623
426.227
427.838
429.455
431.079
432.708
434.343
435.982
437.629
439.283
440.941
442.606
444.278
445.957
447.642
449.333
451.032
452.738
454.45
456.17
457.898
459.633
461.375
463.125
464.884
466.65
468.425
470.208
472
473.8
475.61
477.429
479.257
481.094
482.941
484.798
486.665
488.542
490.43
492.328
494.237
496.158
498.09
500.033
501.988
503.955
505.936
507.928
509.934
511.953
513.986
516.032
518.094
520.169
522.26
524.365
526.487
528.625
530.779
532.951
535.14
537.347
539.573
541.818
544.082
546.367
548.673
550.999
553.349
555.721
558.117
560.537
562.982
565.452
567.95
570.475
573.03
575.614
578.231
580.88
583.564
586.281
589.037
591.83
594.664
597.539
600.459
603.425
606.442
609.508
612.63
615.808
619.048
622.35
625.724
629.168
632.695
636.3
640
643.789
647.692
651.704
655.855
660.139
664.585
669.18
673.953
678.893
684.043
689.405
695.035
700.932
707.139
713.629
720.429
727.504
734.88
742.297
748.622
754.585
760.296
765.667
770.666
775.271
779.527
783.471
787.177
790.692
794.078
797.381
800.63
803.9
807.195
810.567
813.986
817.506
821.073
824.732
828.42
832.181
835.946
839.758
843.551
847.368
851.151
854.942
858.69
862.442
866.149
869.864
873.534
877.218
880.857
884.518
888.135
891.782
895.382
899.021
902.609
906.24
909.817
913.438
917.004
920.611
924.163
927.752
931.287
934.855
938.369
941.914
945.404
948.927
952.391
955.891
959.325
962.799
966.206
969.661
973.044
976.47
979.816
983.219
986.549
989.94
993.236
996.583
999.842
1003.19
1006.45
1009.77
1012.97
1016.25
1019.41
1022.7
1025.87
1029.12
1032.23
1035.44
1038.51
1041.72
1044.78
1047.98
1050.98
1054.12
1057.07
1060.2
1063.11
1066.2
1069.2
1072.57
1074.8
1076.61
1080.42
1088.16
1091.12
1084.31
1080.69
)
;

boundaryField
{
    sideLeft
    {
        type            symmetryPlane;
        value           uniform 0;
    }
    sideRight
    {
        type            calculated;
        value           uniform 3250.64;
    }
    topbottom
    {
        type            empty;
        value           nonuniform 0();
    }
    frontback
    {
        type            empty;
        value           nonuniform 0();
    }
}


// ************************************************************************* //
