/*--------------------------------*- C++ -*----------------------------------*\
| =========                 |                                                 |
| \\      /  F ield         | OpenFOAM: The Open Source CFD Toolbox           |
|  \\    /   O peration     | Version:  2.4.0                                 |
|   \\  /    A nd           | Web:      www.OpenFOAM.org                      |
|    \\/     M anipulation  |                                                 |
\*---------------------------------------------------------------------------*/
FoamFile
{
    version     2.0;
    format      ascii;
    class       surfaceScalarField;
    location    "0.18";
    object      phi.air;
}
// * * * * * * * * * * * * * * * * * * * * * * * * * * * * * * * * * * * * * //

dimensions      [0 3 -1 0 0 0 0];

internalField   nonuniform List<scalar> 
999
(
3.12641e-13
-5.78399e-14
-3.1634e-13
5.01499e-13
8.15739e-13
2.06779e-12
2.17663e-12
2.96579e-12
3.21142e-12
4.39097e-12
4.7095e-12
3.89705e-12
4.90305e-12
3.55667e-12
4.175e-12
3.6723e-12
1.46179e-12
2.59371e-12
2.10911e-12
1.71696e-12
6.00546e-13
8.28906e-13
1.19924e-12
2.09086e-12
1.8846e-12
1.45478e-12
1.44132e-12
6.25278e-13
-2.65884e-13
-1.57241e-12
-1.33621e-12
-1.29699e-12
-6.66128e-14
1.56319e-13
3.26391e-13
-2.31263e-13
-1.30066e-12
-4.50239e-13
-5.68272e-15
4.7312e-13
4.69183e-13
3.26851e-13
1.55451e-12
8.64809e-13
8.57768e-13
1.24359e-12
4.83169e-13
7.1748e-13
2.03288e-13
1.38525e-13
7.91192e-13
1.96668e-12
1.05552e-12
1.31264e-12
1.02772e-12
1.15813e-12
2.27622e-12
1.10167e-12
1.3281e-12
7.64736e-13
1.2019e-13
-1.37083e-13
-1.78568e-12
-1.29641e-12
-1.13746e-12
-1.13214e-12
-1.22646e-12
-1.02377e-12
-4.45994e-13
-5.78733e-13
-1.0881e-14
8.35017e-13
8.03902e-13
8.61779e-13
2.45755e-12
1.62065e-12
1.66763e-12
1.61764e-12
1.43902e-12
1.23435e-12
1.78348e-12
2.81794e-12
2.75191e-12
1.86022e-12
2.89317e-12
1.89976e-12
1.57762e-12
2.92119e-12
2.13965e-12
2.11148e-12
3.22083e-12
2.26738e-12
4.56451e-12
3.62388e-12
3.69095e-12
4.90023e-12
4.4558e-12
4.78137e-12
4.9926e-12
4.68462e-12
5.32697e-12
4.92969e-12
4.3712e-12
3.72811e-12
3.15997e-12
2.9596e-12
2.57671e-12
3.58445e-12
3.06196e-12
4.11691e-12
3.10674e-12
3.20716e-12
1.94051e-12
1.3242e-12
1.44735e-12
2.57401e-12
2.78267e-12
3.25272e-12
3.77121e-12
4.73415e-12
2.91361e-12
3.8328e-12
2.34371e-12
1.28934e-12
1.55334e-12
2.47044e-12
1.66098e-12
2.91116e-12
2.08074e-12
8.83523e-13
8.2885e-13
3.41062e-13
7.40665e-13
4.91021e-13
1.90696e-12
2.3422e-13
-5.7555e-13
-8.63024e-13
-1.32499e-12
-2.60185e-12
-2.34534e-12
-2.91712e-12
-3.94517e-12
-3.71218e-12
-3.51551e-12
-3.83162e-12
-2.00428e-12
-2.21098e-12
-4.06851e-13
4.93432e-13
7.98295e-13
1.45123e-12
2.08394e-12
2.00277e-12
2.48981e-12
2.81093e-12
3.32868e-12
2.89236e-12
3.22543e-12
3.15368e-12
3.33309e-12
3.51118e-12
3.68502e-12
2.56092e-12
2.90394e-12
2.95057e-12
2.19879e-12
1.69216e-12
8.03567e-13
1.07213e-12
5.78062e-13
6.94229e-13
3.77589e-14
-1.49266e-12
-1.41684e-12
-1.71716e-12
2.55795e-13
1.64534e-13
1.96493e-12
8.94421e-13
7.33365e-13
8.02862e-13
-1.86368e-13
-1.03962e-12
-3.04656e-13
-4.61023e-13
-2.1961e-12
-1.01419e-12
-2.08959e-12
-1.12412e-12
-2.03553e-12
-2.64912e-12
-2.61421e-12
-2.71713e-12
-2.08566e-12
-1.9442e-12
-2.02129e-12
-1.86478e-12
-1.80057e-12
-1.83936e-12
-2.22282e-12
-1.91705e-12
-1.74039e-12
-1.01593e-12
1.3745e-14
1.07659e-12
2.81427e-13
9.02806e-13
4.83169e-13
1.10746e-12
2.01822e-12
3.60358e-13
2.74679e-13
8.8708e-13
2.07195e-12
1.86586e-12
2.41381e-12
1.95967e-12
2.13882e-12
9.23849e-13
7.24161e-13
2.29869e-12
2.24715e-12
2.56923e-12
1.88531e-12
3.07384e-12
1.78649e-12
1.8169e-12
1.23159e-12
4.88307e-13
1.31777e-12
1.69191e-12
2.54457e-12
1.80319e-12
2.30983e-12
1.25789e-12
1.62166e-12
1.15104e-12
2.21249e-12
2.44652e-12
1.94144e-12
1.48381e-12
2.09537e-12
2.40626e-12
2.54295e-12
1.19849e-12
1.78775e-12
5.40325e-13
5.79437e-13
1.94114e-13
1.19148e-12
1.66257e-12
1.05809e-12
2.13719e-12
3.45604e-12
2.08486e-12
1.76521e-12
1.07465e-12
1.43691e-12
2.35237e-12
3.05619e-12
4.39863e-12
3.43984e-12
2.9804e-12
3.16853e-12
3.55062e-12
3.7609e-12
3.18953e-12
4.11578e-12
4.85043e-12
4.63528e-12
5.22024e-12
5.45811e-12
6.58035e-12
7.27196e-12
6.20446e-12
6.8449e-12
6.47748e-12
5.26381e-12
5.94888e-12
7.42024e-12
8.00343e-12
5.86469e-12
5.62432e-12
4.61364e-12
4.18095e-12
4.71377e-12
4.47225e-12
3.73041e-12
3.54312e-12
2.6645e-12
2.00745e-12
3.00753e-12
3.40578e-12
2.4766e-12
3.41687e-12
4.03811e-12
3.3926e-12
3.90277e-12
2.50609e-12
1.80293e-12
7.69903e-13
1.1476e-12
6.69847e-13
-1.05857e-12
-8.25735e-13
-6.96332e-13
-2.05885e-13
-7.70032e-13
-1.34268e-12
-3.74571e-13
3.1264e-13
-4.51241e-14
3.03994e-13
7.97227e-13
8.81073e-13
2.16037e-12
1.92832e-12
2.80089e-12
1.73564e-12
1.08796e-12
5.10185e-13
7.78946e-13
-1.2849e-13
-2.84218e-13
-1.88651e-13
3.36155e-13
2.82786e-12
1.51101e-12
1.70009e-12
2.13965e-12
2.2321e-12
1.22478e-12
1.71466e-12
2.53899e-12
2.49028e-12
1.80163e-12
1.94946e-12
1.86883e-12
1.78528e-12
3.82991e-12
4.27163e-12
5.87183e-12
7.58722e-12
9.57996e-12
1.13353e-11
1.67281e-11
2.09662e-11
2.75832e-11
3.72e-11
5.21851e-11
7.50809e-11
1.0822e-10
1.57906e-10
2.32726e-10
3.43147e-10
5.04741e-10
7.45248e-10
1.09533e-09
1.60501e-09
2.34867e-09
3.42757e-09
4.98862e-09
7.24231e-09
1.04857e-08
1.51426e-08
2.18039e-08
3.13089e-08
4.48347e-08
6.40222e-08
9.11643e-08
1.29446e-07
1.83282e-07
2.58765e-07
3.64282e-07
5.11348e-07
7.15699e-07
9.98801e-07
1.3898e-06
1.92818e-06
2.66722e-06
3.67855e-06
5.05822e-06
6.93449e-06
9.4781e-06
1.29155e-05
1.75461e-05
2.37641e-05
3.20867e-05
4.31906e-05
5.79569e-05
7.75294e-05
0.000103387
0.000137436
0.000182122
0.00024057
0.000316763
0.000415752
0.000543918
0.000709294
0.000921946
0.00119444
0.0015424
0.00198516
0.00254656
0.00325585
0.0041488
0.00526889
0.00666883
0.00841213
0.010575
0.0132487
0.0165413
0.020581
0.0255188
0.0315312
0.0388244
0.0476373
0.0582453
0.0709648
0.0861564
0.104229
0.125646
0.150924
0.180641
0.215438
0.25602
0.30316
0.357696
0.420537
0.492654
0.575087
0.66893
0.775337
0.895507
1.03068
1.18213
1.35115
1.53905
1.74712
1.97665
2.2289
2.50509
2.80637
3.13385
3.48852
3.87133
4.28308
4.7245
5.19617
5.69857
6.23206
6.79684
7.39301
8.02054
8.67927
9.36891
10.0891
10.8393
11.6189
12.4273
13.2637
14.1271
15.0168
15.9318
16.871
17.8334
18.818
19.8236
20.8492
21.8937
22.956
24.0349
25.1295
26.2388
27.3615
28.4969
29.644
30.8017
31.9693
33.1459
34.3307
35.5229
36.7219
37.9268
39.1372
40.3524
41.5718
42.795
44.0213
45.2505
46.4821
47.7157
48.9509
50.1875
51.4252
52.6636
53.9027
55.1421
56.3817
57.6213
58.8607
60.1
61.3388
62.5772
63.815
65.0522
66.2888
67.5246
68.7596
69.9939
71.2273
72.4599
73.6917
74.9226
76.1526
77.3819
78.6102
79.8378
81.0645
82.2904
83.5156
84.7399
85.9636
87.1865
88.4087
89.6303
90.8512
92.0714
93.2911
94.5102
95.7288
96.9468
98.1643
99.3813
100.598
101.814
103.03
104.245
105.46
106.675
107.889
109.103
110.317
111.531
112.744
113.957
115.17
116.383
117.596
118.808
120.021
121.233
122.445
123.658
124.87
126.082
127.294
128.506
129.718
130.93
132.143
133.355
134.567
135.78
136.992
138.205
139.417
140.63
141.843
143.056
144.27
145.483
146.697
147.91
149.124
150.338
151.553
152.767
153.982
155.197
156.412
157.628
158.843
160.059
161.275
162.492
163.709
164.926
166.143
167.361
168.579
169.797
171.016
172.235
173.454
174.674
175.894
177.115
178.336
179.557
180.779
182.001
183.224
184.447
185.671
186.895
188.12
189.345
190.571
191.798
193.024
194.252
195.48
196.709
197.938
199.168
200.399
201.63
202.862
204.094
205.328
206.562
207.797
209.032
210.268
211.505
212.743
213.982
215.221
216.462
217.703
218.945
220.188
221.431
222.676
223.921
225.168
226.415
227.663
228.912
230.162
231.413
232.666
233.919
235.173
236.428
237.684
238.941
240.199
241.459
242.719
243.981
245.243
246.507
247.772
249.038
250.305
251.573
252.843
254.113
255.385
256.659
257.933
259.209
260.486
261.764
263.044
264.324
265.607
266.89
268.175
269.462
270.749
272.039
273.329
274.621
275.915
277.21
278.506
279.804
281.104
282.405
283.708
285.012
286.318
287.626
288.935
290.246
291.558
292.873
294.189
295.506
296.826
298.147
299.47
300.795
302.122
303.451
304.781
306.114
307.448
308.785
310.123
311.463
312.805
314.15
315.496
316.845
318.195
319.548
320.903
322.26
323.619
324.98
326.344
327.71
329.078
330.449
331.822
333.197
334.575
335.955
337.338
338.723
340.111
341.501
342.894
344.289
345.688
347.088
348.492
349.898
351.307
352.719
354.134
355.551
356.972
358.395
359.822
361.251
362.684
364.119
365.558
367
368.446
369.894
371.346
372.801
374.259
375.721
377.187
378.656
380.128
381.605
383.085
384.569
386.056
387.547
389.041
390.539
392.04
393.546
395.057
396.573
398.093
399.616
401.144
402.677
404.213
405.755
407.3
408.85
410.405
411.965
413.53
415.1
416.674
418.255
419.839
421.429
423.023
424.623
426.227
427.838
429.455
431.079
432.708
434.343
435.982
437.629
439.283
440.941
442.606
444.278
445.957
447.642
449.333
451.032
452.738
454.45
456.17
457.898
459.633
461.375
463.125
464.884
466.65
468.425
470.208
472
473.8
475.61
477.429
479.257
481.094
482.941
484.798
486.665
488.542
490.43
492.328
494.237
496.158
498.09
500.033
501.988
503.955
505.936
507.928
509.934
511.953
513.986
516.033
518.094
520.169
522.26
524.365
526.487
528.625
530.779
532.951
535.14
537.347
539.573
541.817
544.082
546.367
548.673
550.999
553.349
555.721
558.117
560.536
562.982
565.452
567.95
570.475
573.03
575.614
578.231
580.88
583.564
586.281
589.038
591.83
594.664
597.539
600.459
603.425
606.442
609.508
612.63
615.807
619.048
622.35
625.724
629.168
632.695
636.301
640
643.79
647.691
651.704
655.855
660.139
664.585
669.18
673.952
678.893
684.043
689.405
695.035
700.931
707.139
713.629
720.43
727.504
734.88
742.297
748.622
754.585
760.296
765.667
770.665
775.271
779.527
783.471
787.177
790.691
794.079
797.381
800.629
803.901
807.193
810.568
813.985
817.507
821.072
824.733
828.42
832.181
835.946
839.758
843.551
847.369
851.15
854.943
858.689
862.443
866.149
869.864
873.534
877.217
880.858
884.517
888.136
891.78
895.385
899.018
902.612
906.237
909.82
913.436
917.006
920.61
924.164
927.752
931.288
934.856
938.369
941.915
945.403
948.928
952.391
955.891
959.325
962.799
966.207
969.661
973.045
976.47
979.817
983.219
986.55
989.94
993.237
996.583
999.843
1003.19
1006.45
1009.77
1012.98
1016.25
1019.42
1022.7
1025.87
1029.12
1032.23
1035.44
1038.51
1041.72
1044.79
1047.98
1050.99
1054.12
1057.09
1060.19
1063.13
1066.19
1069.22
1072.57
1074.82
1076.6
1080.42
1088.18
1091.18
1084.38
1081.1
)
;

boundaryField
{
    sideLeft
    {
        type            symmetryPlane;
        value           uniform 0;
    }
    sideRight
    {
        type            calculated;
        value           uniform 1079.93;
    }
    topbottom
    {
        type            empty;
        value           nonuniform 0();
    }
    frontback
    {
        type            empty;
        value           nonuniform 0();
    }
}


// ************************************************************************* //
