/*--------------------------------*- C++ -*----------------------------------*\
| =========                 |                                                 |
| \\      /  F ield         | OpenFOAM: The Open Source CFD Toolbox           |
|  \\    /   O peration     | Version:  2.4.0                                 |
|   \\  /    A nd           | Web:      www.OpenFOAM.org                      |
|    \\/     M anipulation  |                                                 |
\*---------------------------------------------------------------------------*/
FoamFile
{
    version     2.0;
    format      ascii;
    class       volScalarField;
    location    "0.18";
    object      pMean;
}
// * * * * * * * * * * * * * * * * * * * * * * * * * * * * * * * * * * * * * //

dimensions      [1 -1 -2 0 0 0 0];

internalField   nonuniform List<scalar> 
1000
(
5e+06
5e+06
5e+06
5e+06
5e+06
5e+06
5e+06
5e+06
5e+06
5e+06
5e+06
5e+06
5e+06
5e+06
5e+06
5e+06
5e+06
5e+06
5e+06
5e+06
5e+06
5e+06
5e+06
5e+06
5e+06
5e+06
5e+06
5e+06
5e+06
5e+06
5e+06
5e+06
5e+06
5e+06
5e+06
5e+06
5e+06
5e+06
5e+06
5e+06
5e+06
5e+06
5e+06
5e+06
5e+06
5e+06
5e+06
5e+06
5e+06
5e+06
5e+06
5e+06
5e+06
5e+06
5e+06
5e+06
5e+06
5e+06
5e+06
5e+06
5e+06
5e+06
5e+06
5e+06
5e+06
5e+06
5e+06
5e+06
5e+06
5e+06
5e+06
5e+06
5e+06
5e+06
5e+06
5e+06
5e+06
5e+06
5e+06
5e+06
5e+06
5e+06
5e+06
5e+06
5e+06
5e+06
5e+06
5e+06
5e+06
5e+06
5e+06
5e+06
5e+06
5e+06
5e+06
5e+06
5e+06
5e+06
5e+06
5e+06
5e+06
5e+06
5e+06
5e+06
5e+06
5e+06
5e+06
5e+06
5e+06
5e+06
5e+06
5e+06
5e+06
5e+06
5e+06
5e+06
5e+06
5e+06
5e+06
5e+06
5e+06
5e+06
5e+06
5e+06
5e+06
5e+06
5e+06
5e+06
5e+06
5e+06
5e+06
5e+06
5e+06
5e+06
5e+06
5e+06
5e+06
5e+06
5e+06
5e+06
5e+06
5e+06
5e+06
5e+06
5e+06
5e+06
5e+06
5e+06
5e+06
5e+06
5e+06
5e+06
5e+06
5e+06
5e+06
5e+06
5e+06
5e+06
5e+06
5e+06
5e+06
5e+06
5e+06
5e+06
5e+06
5e+06
5e+06
5e+06
5e+06
5e+06
5e+06
5e+06
5e+06
5e+06
5e+06
5e+06
5e+06
5e+06
5e+06
5e+06
5e+06
5e+06
5e+06
5e+06
5e+06
5e+06
5e+06
5e+06
5e+06
5e+06
5e+06
5e+06
5e+06
5e+06
5e+06
5e+06
5e+06
5e+06
5e+06
5e+06
5e+06
5e+06
5e+06
5e+06
5e+06
5e+06
5e+06
5e+06
5e+06
5e+06
5e+06
5e+06
5e+06
5e+06
5e+06
5e+06
5e+06
5e+06
5e+06
5e+06
5e+06
5e+06
5e+06
5e+06
5e+06
5e+06
5e+06
5e+06
5e+06
5e+06
5e+06
5e+06
5e+06
5e+06
5e+06
5e+06
5e+06
5e+06
5e+06
5e+06
5e+06
5e+06
5e+06
5e+06
5e+06
5e+06
5e+06
5e+06
5e+06
5e+06
5e+06
5e+06
5e+06
5e+06
5e+06
5e+06
5e+06
5e+06
5e+06
5e+06
5e+06
5e+06
5e+06
5e+06
5e+06
5e+06
5e+06
5e+06
5e+06
5e+06
5e+06
5e+06
5e+06
5e+06
5e+06
5e+06
5e+06
5e+06
5e+06
5e+06
5e+06
5e+06
5e+06
5e+06
5e+06
5e+06
5e+06
5e+06
5e+06
5e+06
5e+06
5e+06
5e+06
5e+06
5e+06
5e+06
5e+06
5e+06
5e+06
5e+06
5e+06
5e+06
5e+06
5e+06
5e+06
5e+06
5e+06
5e+06
5e+06
5e+06
5e+06
5e+06
5e+06
5e+06
5e+06
5e+06
5e+06
5e+06
5e+06
5e+06
5e+06
5e+06
5e+06
5e+06
5e+06
5e+06
5e+06
5e+06
5e+06
5e+06
5e+06
5e+06
5e+06
5e+06
5e+06
5e+06
5e+06
5e+06
5e+06
5e+06
5e+06
5e+06
5e+06
5e+06
5e+06
5e+06
5e+06
5e+06
5e+06
5e+06
5e+06
5e+06
5e+06
5e+06
5e+06
5e+06
5e+06
5e+06
5e+06
5e+06
5e+06
5e+06
5e+06
5e+06
5e+06
5e+06
5e+06
5e+06
5e+06
5e+06
5e+06
5e+06
5e+06
5e+06
5e+06
5e+06
5e+06
5e+06
5e+06
5e+06
5e+06
5e+06
5e+06
5e+06
5e+06
5e+06
5e+06
5e+06
5e+06
5e+06
5e+06
5e+06
5e+06
5e+06
5e+06
5e+06
5e+06
5e+06
5e+06
5e+06
5e+06
5e+06
5e+06
5e+06
5e+06
5e+06
5e+06
5e+06
5e+06
5e+06
5e+06
5e+06
5e+06
5e+06
5e+06
5e+06
5e+06
5e+06
5e+06
5e+06
5e+06
5e+06
4.99999e+06
4.99999e+06
4.99999e+06
4.99999e+06
4.99999e+06
4.99998e+06
4.99998e+06
4.99998e+06
4.99997e+06
4.99997e+06
4.99996e+06
4.99996e+06
4.99995e+06
4.99994e+06
4.99993e+06
4.99992e+06
4.9999e+06
4.99989e+06
4.99987e+06
4.99985e+06
4.99983e+06
4.9998e+06
4.99977e+06
4.99974e+06
4.9997e+06
4.99966e+06
4.99962e+06
4.99957e+06
4.99952e+06
4.99946e+06
4.9994e+06
4.99933e+06
4.99925e+06
4.99917e+06
4.99908e+06
4.99899e+06
4.99888e+06
4.99877e+06
4.99865e+06
4.99853e+06
4.99839e+06
4.99824e+06
4.99809e+06
4.99793e+06
4.99776e+06
4.99757e+06
4.99738e+06
4.99718e+06
4.99696e+06
4.99674e+06
4.99651e+06
4.99626e+06
4.996e+06
4.99573e+06
4.99545e+06
4.99516e+06
4.99486e+06
4.99454e+06
4.99422e+06
4.99388e+06
4.99353e+06
4.99316e+06
4.99279e+06
4.9924e+06
4.992e+06
4.99159e+06
4.99116e+06
4.99072e+06
4.99027e+06
4.98981e+06
4.98933e+06
4.98884e+06
4.98834e+06
4.98783e+06
4.9873e+06
4.98676e+06
4.98621e+06
4.98565e+06
4.98507e+06
4.98448e+06
4.98388e+06
4.98326e+06
4.98263e+06
4.98199e+06
4.98134e+06
4.98067e+06
4.97999e+06
4.9793e+06
4.9786e+06
4.97788e+06
4.97715e+06
4.97641e+06
4.97565e+06
4.97489e+06
4.97411e+06
4.97331e+06
4.97251e+06
4.97169e+06
4.97086e+06
4.97002e+06
4.96916e+06
4.96829e+06
4.96741e+06
4.96652e+06
4.96561e+06
4.96469e+06
4.96376e+06
4.96282e+06
4.96186e+06
4.96089e+06
4.95991e+06
4.95892e+06
4.95791e+06
4.95689e+06
4.95586e+06
4.95481e+06
4.95376e+06
4.95269e+06
4.95161e+06
4.95051e+06
4.94941e+06
4.94829e+06
4.94715e+06
4.94601e+06
4.94485e+06
4.94368e+06
4.9425e+06
4.94131e+06
4.9401e+06
4.93888e+06
4.93765e+06
4.9364e+06
4.93515e+06
4.93388e+06
4.9326e+06
4.9313e+06
4.92999e+06
4.92867e+06
4.92734e+06
4.926e+06
4.92464e+06
4.92327e+06
4.92189e+06
4.92049e+06
4.91908e+06
4.91766e+06
4.91623e+06
4.91478e+06
4.91333e+06
4.91185e+06
4.91037e+06
4.90888e+06
4.90737e+06
4.90585e+06
4.90431e+06
4.90276e+06
4.90121e+06
4.89963e+06
4.89805e+06
4.89645e+06
4.89484e+06
4.89322e+06
4.89159e+06
4.88994e+06
4.88828e+06
4.8866e+06
4.88492e+06
4.88322e+06
4.88151e+06
4.87978e+06
4.87805e+06
4.8763e+06
4.87454e+06
4.87276e+06
4.87097e+06
4.86917e+06
4.86736e+06
4.86553e+06
4.86369e+06
4.86184e+06
4.85998e+06
4.8581e+06
4.85621e+06
4.85431e+06
4.85239e+06
4.85046e+06
4.84852e+06
4.84657e+06
4.8446e+06
4.84262e+06
4.84062e+06
4.83862e+06
4.8366e+06
4.83457e+06
4.83252e+06
4.83046e+06
4.82839e+06
4.82631e+06
4.82421e+06
4.8221e+06
4.81998e+06
4.81784e+06
4.81569e+06
4.81353e+06
4.81135e+06
4.80916e+06
4.80696e+06
4.80475e+06
4.80252e+06
4.80028e+06
4.79802e+06
4.79575e+06
4.79347e+06
4.79118e+06
4.78887e+06
4.78655e+06
4.78422e+06
4.78187e+06
4.77951e+06
4.77713e+06
4.77474e+06
4.77234e+06
4.76993e+06
4.7675e+06
4.76506e+06
4.76261e+06
4.76014e+06
4.75766e+06
4.75516e+06
4.75265e+06
4.75013e+06
4.74759e+06
4.74504e+06
4.74248e+06
4.7399e+06
4.73731e+06
4.73471e+06
4.73209e+06
4.72946e+06
4.72681e+06
4.72415e+06
4.72148e+06
4.7188e+06
4.71609e+06
4.71338e+06
4.71065e+06
4.70791e+06
4.70515e+06
4.70238e+06
4.6996e+06
4.6968e+06
4.69399e+06
4.69116e+06
4.68832e+06
4.68547e+06
4.6826e+06
4.67972e+06
4.67682e+06
4.67391e+06
4.67098e+06
4.66804e+06
4.66509e+06
4.66212e+06
4.65914e+06
4.65614e+06
4.65313e+06
4.6501e+06
4.64706e+06
4.64401e+06
4.64094e+06
4.63785e+06
4.63476e+06
4.63164e+06
4.62851e+06
4.62537e+06
4.62221e+06
4.61904e+06
4.61586e+06
4.61265e+06
4.60944e+06
4.6062e+06
4.60296e+06
4.5997e+06
4.59642e+06
4.59313e+06
4.58982e+06
4.5865e+06
4.58316e+06
4.57981e+06
4.57644e+06
4.57306e+06
4.56966e+06
4.56625e+06
4.56282e+06
4.55937e+06
4.55591e+06
4.55244e+06
4.54895e+06
4.54544e+06
4.54192e+06
4.53838e+06
4.53483e+06
4.53126e+06
4.52767e+06
4.52407e+06
4.52045e+06
4.51682e+06
4.51317e+06
4.5095e+06
4.50582e+06
4.50212e+06
4.49841e+06
4.49468e+06
4.49093e+06
4.48717e+06
4.48339e+06
4.47959e+06
4.47578e+06
4.47195e+06
4.4681e+06
4.46424e+06
4.46036e+06
4.45646e+06
4.45255e+06
4.44862e+06
4.44467e+06
4.44071e+06
4.43673e+06
4.43273e+06
4.42871e+06
4.42468e+06
4.42062e+06
4.41656e+06
4.41247e+06
4.40837e+06
4.40424e+06
4.4001e+06
4.39595e+06
4.39177e+06
4.38758e+06
4.38337e+06
4.37914e+06
4.37489e+06
4.37062e+06
4.36634e+06
4.36203e+06
4.35771e+06
4.35337e+06
4.34901e+06
4.34463e+06
4.34024e+06
4.33582e+06
4.33139e+06
4.32693e+06
4.32246e+06
4.31796e+06
4.31345e+06
4.30892e+06
4.30437e+06
4.29979e+06
4.2952e+06
4.29059e+06
4.28596e+06
4.28131e+06
4.27663e+06
4.27194e+06
4.26723e+06
4.26249e+06
4.25774e+06
4.25296e+06
4.24816e+06
4.24335e+06
4.23851e+06
4.23364e+06
4.22876e+06
4.22386e+06
4.21893e+06
4.21398e+06
4.20901e+06
4.20402e+06
4.199e+06
4.19396e+06
4.1889e+06
4.18382e+06
4.17871e+06
4.17358e+06
4.16843e+06
4.16325e+06
4.15805e+06
4.15282e+06
4.14757e+06
4.1423e+06
4.137e+06
4.13168e+06
4.12633e+06
4.12095e+06
4.11555e+06
4.11013e+06
4.10468e+06
4.0992e+06
4.0937e+06
4.08817e+06
4.08261e+06
4.07703e+06
4.07142e+06
4.06578e+06
4.06012e+06
4.05442e+06
4.0487e+06
4.04295e+06
4.03717e+06
4.03136e+06
4.02552e+06
4.01965e+06
4.01375e+06
4.00782e+06
4.00185e+06
3.99586e+06
3.98983e+06
3.98378e+06
3.97769e+06
3.97156e+06
3.96541e+06
3.95922e+06
3.95299e+06
3.94673e+06
3.94043e+06
3.9341e+06
3.92774e+06
3.92133e+06
3.91489e+06
3.90841e+06
3.90189e+06
3.89533e+06
3.88873e+06
3.88209e+06
3.8754e+06
3.86868e+06
3.86191e+06
3.8551e+06
3.84824e+06
3.84134e+06
3.83439e+06
3.82739e+06
3.82035e+06
3.81325e+06
3.8061e+06
3.7989e+06
3.79164e+06
3.78433e+06
3.77696e+06
3.76954e+06
3.76205e+06
3.7545e+06
3.74688e+06
3.7392e+06
3.73145e+06
3.72363e+06
3.71573e+06
3.70776e+06
3.6997e+06
3.69156e+06
3.68334e+06
3.67502e+06
3.6666e+06
3.65809e+06
3.64947e+06
3.64075e+06
3.63191e+06
3.62295e+06
3.61388e+06
3.60468e+06
3.59536e+06
3.58593e+06
3.57638e+06
3.56673e+06
3.557e+06
3.54722e+06
3.53743e+06
3.52772e+06
3.5182e+06
3.5089e+06
3.4998e+06
3.49087e+06
3.48207e+06
3.47333e+06
3.46463e+06
3.45592e+06
3.44718e+06
3.43839e+06
3.42954e+06
3.42062e+06
3.41164e+06
3.40261e+06
3.39352e+06
3.38438e+06
3.3752e+06
3.36598e+06
3.35672e+06
3.34744e+06
3.33813e+06
3.3288e+06
3.31944e+06
3.31005e+06
3.30064e+06
3.29121e+06
3.28175e+06
3.27226e+06
3.26275e+06
3.25322e+06
3.24366e+06
3.23408e+06
3.22447e+06
3.21484e+06
3.20519e+06
3.19551e+06
3.18581e+06
3.1761e+06
3.16636e+06
3.1566e+06
3.14683e+06
3.13704e+06
3.12723e+06
3.11741e+06
3.10757e+06
3.09771e+06
3.08785e+06
3.07797e+06
3.06807e+06
3.05817e+06
3.04826e+06
3.03833e+06
3.0284e+06
3.01846e+06
3.00851e+06
2.99856e+06
2.9886e+06
2.97864e+06
2.96867e+06
2.95871e+06
2.94875e+06
2.9388e+06
2.92886e+06
2.91893e+06
2.90902e+06
2.89913e+06
2.88927e+06
2.87945e+06
2.86966e+06
2.85993e+06
2.85024e+06
2.84062e+06
2.83106e+06
2.82158e+06
2.81218e+06
2.80287e+06
2.79364e+06
2.78448e+06
2.77539e+06
2.76641e+06
2.7576e+06
2.74899e+06
2.7406e+06
2.73247e+06
2.72463e+06
2.7171e+06
2.7099e+06
2.70308e+06
2.69667e+06
2.69078e+06
2.68549e+06
2.68094e+06
2.67723e+06
2.6745e+06
2.67291e+06
2.67274e+06
2.67388e+06
2.67192e+06
)
;

boundaryField
{
    sideLeft
    {
        type            symmetryPlane;
    }
    sideRight
    {
        type            calculated;
        value           uniform 2.66674e+06;
    }
    topbottom
    {
        type            empty;
    }
    frontback
    {
        type            empty;
    }
}


// ************************************************************************* //
