/*--------------------------------*- C++ -*----------------------------------*\
| =========                 |                                                 |
| \\      /  F ield         | OpenFOAM: The Open Source CFD Toolbox           |
|  \\    /   O peration     | Version:  2.4.0                                 |
|   \\  /    A nd           | Web:      www.OpenFOAM.org                      |
|    \\/     M anipulation  |                                                 |
\*---------------------------------------------------------------------------*/
FoamFile
{
    version     2.0;
    format      ascii;
    class       volScalarField;
    location    "0.18";
    object      T.air;
}
// * * * * * * * * * * * * * * * * * * * * * * * * * * * * * * * * * * * * * //

dimensions      [0 0 0 1 0 0 0];

internalField   nonuniform List<scalar> 
1000
(
300
300
300
300
300
300
300
300
300
300
300
300
300
300
300
300
300
300
300
300
300
300
300
300
300
300
300
300
300
300
300
300
300
300
300
300
300
300
300
300
300
300
300
300
300
300
300
300
300
300
300
300
300
300
300
300
300
300
300
300
300
300
300
300
300
300
300
300
300
300
300
300
300
300
300
300
300
300
300
300
300
300
300
300
300
300
300
300
300
300
300
300
300
300
300
300
300
300
300
300
300
300
300
300
300
300
300
300
300
300
300
300
300
300
300
300
300
300
300
300
300
300
300
300
300
300
300
300
300
300
300
300
300
300
300
300
300
300
300
300
300
300
300
300
300
300
300
300
300
300
300
300
300
300
300
300
300
300
300
300
300
300
300
300
300
300
300
300
300
300
300
300
300
300
300
300
300
300
300
300
300
300
300
300
300
300
300
300
300
300
300
300
300
300
300
300
300
300
300
300
300
300
300
300
300
300
300
300
300
300
300
300
300
300
300
300
300
300
300
300
300
300
300
300
300
300
300
300
300
300
300
300
300
300
300
300
300
300
300
300
300
300
300
300
300
300
300
300
300
300
300
300
300
300
300
300
300
300
300
300
300
300
300
300
300
300
300
300
300
300
300
300
300
300
300
300
300
300
300
300
300
300
300
300
300
300
300
300
300
300
300
300
300
300
300
300
300
300
300
300
300
300
300
300
300
300
300
300
300
300
300
300
300
300
300
300
300
300
300
300
300
300
300
300
300
300
300
300
300
300
300
300
300
300
300
300
300
300
300
300
300
300
300
300
300
300
300
300
300
300
300
300
300
300
300
300
300
300
300
300
300
300
300
300
300
300
300
300
300
300
300
300
300
300
300
300
300
300
300
300
300
300
300
300
300
300
300
300
300
300
300
300
300
300
300
300
300
300
300
300
300
300
300
300
300
300
300
300
300
300
300
300
299.999
299.999
299.999
299.999
299.999
299.999
299.998
299.998
299.997
299.997
299.996
299.995
299.994
299.993
299.992
299.99
299.989
299.987
299.984
299.982
299.979
299.975
299.971
299.967
299.962
299.957
299.951
299.944
299.936
299.928
299.919
299.909
299.898
299.886
299.874
299.86
299.845
299.83
299.813
299.795
299.776
299.756
299.735
299.712
299.689
299.664
299.639
299.612
299.584
299.555
299.525
299.494
299.463
299.43
299.396
299.362
299.326
299.29
299.253
299.215
299.177
299.138
299.098
299.058
299.017
298.975
298.933
298.891
298.848
298.805
298.761
298.717
298.673
298.628
298.583
298.538
298.493
298.447
298.401
298.355
298.308
298.262
298.215
298.168
298.122
298.075
298.027
297.98
297.933
297.885
297.838
297.79
297.742
297.694
297.647
297.599
297.551
297.502
297.454
297.406
297.358
297.31
297.261
297.213
297.164
297.116
297.067
297.019
296.97
296.921
296.872
296.823
296.775
296.726
296.677
296.628
296.578
296.529
296.48
296.431
296.382
296.332
296.283
296.233
296.184
296.134
296.084
296.035
295.985
295.935
295.885
295.835
295.785
295.735
295.685
295.635
295.585
295.534
295.484
295.434
295.383
295.333
295.282
295.231
295.181
295.13
295.079
295.028
294.977
294.926
294.875
294.824
294.772
294.721
294.67
294.618
294.567
294.515
294.464
294.412
294.36
294.308
294.256
294.204
294.152
294.1
294.048
293.996
293.944
293.891
293.839
293.786
293.734
293.681
293.629
293.576
293.523
293.47
293.417
293.364
293.311
293.258
293.205
293.152
293.098
293.045
292.991
292.938
292.884
292.831
292.777
292.723
292.669
292.615
292.561
292.507
292.453
292.399
292.345
292.29
292.236
292.181
292.127
292.072
292.017
291.963
291.908
291.853
291.798
291.743
291.687
291.632
291.577
291.521
291.466
291.41
291.355
291.299
291.243
291.187
291.131
291.075
291.019
290.963
290.907
290.85
290.794
290.737
290.681
290.624
290.567
290.51
290.454
290.396
290.339
290.282
290.225
290.168
290.11
290.052
289.995
289.937
289.879
289.821
289.763
289.705
289.647
289.589
289.53
289.472
289.413
289.355
289.296
289.237
289.178
289.119
289.06
289.001
288.942
288.882
288.823
288.763
288.703
288.644
288.584
288.524
288.463
288.403
288.343
288.282
288.222
288.161
288.101
288.04
287.979
287.918
287.856
287.795
287.734
287.672
287.61
287.549
287.487
287.425
287.363
287.3
287.238
287.176
287.113
287.05
286.987
286.924
286.861
286.798
286.735
286.671
286.608
286.544
286.48
286.416
286.352
286.288
286.223
286.159
286.094
286.029
285.964
285.899
285.834
285.768
285.703
285.637
285.571
285.505
285.439
285.373
285.306
285.24
285.172
285.108
285.037
284.975
284.901
284.842
284.763
284.709
284.625
284.575
284.486
284.439
284.348
284.302
284.21
284.163
284.071
284.024
283.931
283.884
283.791
283.744
283.65
283.602
283.508
283.46
283.365
283.316
283.223
283.169
283.083
283.02
282.942
282.87
282.799
282.722
282.652
282.576
282.502
282.43
282.35
282.283
282.197
282.134
282.045
281.984
281.892
281.832
281.738
281.679
281.583
281.525
281.427
281.37
281.27
281.214
281.111
281.056
280.951
280.898
280.79
280.737
280.629
280.575
280.466
280.411
280.301
280.246
280.135
280.08
279.968
279.912
279.799
279.743
279.629
279.571
279.457
279.399
279.283
279.224
279.107
279.048
278.93
278.87
278.751
278.69
278.569
278.508
278.386
278.324
278.201
278.138
278.013
277.95
277.823
277.759
277.63
277.566
277.436
277.37
277.238
277.171
277.038
276.97
276.834
276.766
276.628
276.559
276.419
276.348
276.206
276.134
275.99
275.917
275.77
275.696
275.546
275.47
275.318
275.241
275.086
275.007
274.849
274.768
274.607
274.525
274.36
274.275
274.107
274.02
273.848
273.759
273.582
273.491
273.309
273.215
273.028
272.932
272.739
272.64
272.44
272.337
272.131
272.024
271.81
271.699
271.477
271.361
271.128
271.007
270.763
270.635
270.378
270.243
269.97
269.825
269.534
269.379
269.066
268.899
268.563
268.383
268.018
267.82
267.42
267.204
266.768
266.535
266.065
265.818
265.225
264.446
263.799
262.972
262.39
261.534
261.012
260.136
259.658
258.756
258.297
257.375
256.907
255.968
255.484
254.511
254.008
252.997
252.475
251.424
250.883
249.793
249.234
248.109
247.533
246.376
245.785
244.597
243.991
242.775
242.156
240.911
240.278
239.006
238.36
237.059
236.399
235.07
234.397
233.04
232.353
230.969
230.268
228.857
228.143
226.705
225.977
224.514
223.773
222.285
221.531
220.019
219.253
217.717
216.94
215.38
214.592
213.009
212.21
210.605
209.795
208.169
207.349
205.702
204.871
203.203
202.363
200.676
199.826
198.12
197.261
195.535
194.667
192.924
192.048
190.288
189.403
187.625
186.733
184.941
184.041
182.233
181.326
179.504
178.591
176.756
175.838
173.991
173.069
171.211
170.283
168.413
167.478
165.635
164.694
162.749
161.805
159.646
159.901
160.598
)
;

boundaryField
{
    sideLeft
    {
        type            symmetryPlane;
    }
    sideRight
    {
        type            zeroGradient;
    }
    topbottom
    {
        type            empty;
    }
    frontback
    {
        type            empty;
    }
}


// ************************************************************************* //
