/*--------------------------------*- C++ -*----------------------------------*\
| =========                 |                                                 |
| \\      /  F ield         | OpenFOAM: The Open Source CFD Toolbox           |
|  \\    /   O peration     | Version:  2.4.0                                 |
|   \\  /    A nd           | Web:      www.OpenFOAM.org                      |
|    \\/     M anipulation  |                                                 |
\*---------------------------------------------------------------------------*/
FoamFile
{
    version     2.0;
    format      ascii;
    class       volScalarField;
    location    "0.18";
    object      T.water;
}
// * * * * * * * * * * * * * * * * * * * * * * * * * * * * * * * * * * * * * //

dimensions      [0 0 0 1 0 0 0];

internalField   nonuniform List<scalar> 
1000
(
300
300
300
300
300
300
300
300
300
300
300
300
300
300
300
300
300
300
300
300
300
300
300
300
300
300
300
300
300
300
300
300
300
300
300
300
300
300
300
300
300
300
300
300
300
300
300
300
300
300
300
300
300
300
300
300
300
300
300
300
300
300
300
300
300
300
300
300
300
300
300
300
300
300
300
300
300
300
300
300
300
300
300
300
300
300
300
300
300
300
300
300
300
300
300
300
300
300
300
300
300
300
300
300
300
300
300
300
300
300
300
300
300
300
300
300
300
300
300
300
300
300
300
300
300
300
300
300
300
300
300
300
300
300
300
300
300
300
300
300
300
300
300
300
300
300
300
300
300
300
300
300
300
300
300
300
300
300
300
300
300
300
300
300
300
300
300
300
300
300
300
300
300
300
300
300
300
300
300
300
300
300
300
300
300
300
300
300
300
300
300
300
300
300
300
300
300
300
300
300
300
300
300
300
300
300
300
300
300
300
300
300
300
300
300
300
300
300
300
300
300
300
300
300
300
300
300
300
300
300
300
300
300
300
300
300
300
300
300
300
300
300
300
300
300
300
300
300
300
300
300
300
300
300
300
300
300
300
300
300
300
300
300
300
300
300
300
300
300
300
300
300
300
300
300
300
300
300
300
300
300
300
300
300
300
300
300
300
300
300
300
300
300
300
300
300
300
300
300
300
300
300
300
300
300
300
300
300
300
300
300
300
300
300
300
300
300
300
300
300
300
300
300
300
300
300
300
300
300
300
300
300
300
300
300
300
300
300
300
300
300
300
300
300
300
300
300
300
300
300
300
300
300
300
300
300
300
300
300
300
300
300
300
300
300
300
300
300
300
300
300
300
300
300
300
300
300
300
300
300
300
300
300
300
300
300
300
300
300
300
300
300
300
300
300
300
300
300
300
300
300
300
300
300
300
300
300
300
300
300
300
300
299.999
299.999
299.999
299.999
299.999
299.998
299.998
299.998
299.997
299.997
299.996
299.995
299.994
299.993
299.992
299.99
299.988
299.986
299.984
299.981
299.978
299.974
299.97
299.966
299.961
299.955
299.949
299.942
299.934
299.925
299.916
299.906
299.895
299.883
299.87
299.856
299.841
299.825
299.808
299.79
299.77
299.75
299.728
299.706
299.682
299.657
299.631
299.604
299.576
299.547
299.517
299.486
299.454
299.421
299.387
299.352
299.316
299.28
299.243
299.205
299.166
299.127
299.087
299.047
299.006
298.964
298.922
298.88
298.837
298.794
298.75
298.706
298.662
298.617
298.572
298.527
298.481
298.436
298.39
298.344
298.297
298.251
298.204
298.158
298.111
298.064
298.017
297.969
297.922
297.875
297.827
297.779
297.732
297.684
297.636
297.588
297.54
297.492
297.444
297.396
297.348
297.3
297.251
297.203
297.154
297.106
297.057
297.009
296.96
296.911
296.863
296.814
296.765
296.716
296.667
296.618
296.569
296.52
296.471
296.422
296.372
296.323
296.274
296.224
296.175
296.125
296.076
296.026
295.976
295.926
295.877
295.827
295.777
295.727
295.677
295.626
295.576
295.526
295.476
295.425
295.375
295.324
295.274
295.223
295.172
295.122
295.071
295.02
294.969
294.918
294.867
294.816
294.765
294.713
294.662
294.61
294.559
294.507
294.456
294.404
294.353
294.301
294.249
294.197
294.145
294.093
294.041
293.989
293.936
293.884
293.832
293.779
293.727
293.674
293.622
293.569
293.516
293.463
293.41
293.357
293.304
293.251
293.198
293.145
293.092
293.038
292.985
292.931
292.878
292.824
292.77
292.717
292.663
292.609
292.555
292.501
292.447
292.392
292.338
292.284
292.229
292.175
292.12
292.066
292.011
291.956
291.901
291.847
291.792
291.736
291.681
291.626
291.571
291.515
291.46
291.404
291.349
291.293
291.237
291.182
291.126
291.07
291.014
290.957
290.901
290.845
290.788
290.732
290.675
290.619
290.562
290.505
290.448
290.391
290.334
290.277
290.22
290.162
290.105
290.047
289.99
289.932
289.874
289.816
289.758
289.7
289.642
289.584
289.525
289.467
289.408
289.35
289.291
289.232
289.173
289.114
289.055
288.996
288.937
288.877
288.818
288.758
288.699
288.639
288.579
288.519
288.459
288.399
288.338
288.278
288.217
288.157
288.096
288.035
287.974
287.913
287.852
287.791
287.729
287.668
287.606
287.544
287.482
287.42
287.358
287.296
287.234
287.171
287.109
287.046
286.983
286.92
286.857
286.794
286.731
286.667
286.604
286.54
286.476
286.412
286.348
286.284
286.219
286.155
286.09
286.025
285.96
285.895
285.83
285.765
285.699
285.633
285.568
285.502
285.435
285.37
285.302
285.237
285.169
285.104
285.034
284.971
284.897
284.838
284.76
284.705
284.621
284.571
284.482
284.436
284.344
284.298
284.206
284.16
284.067
284.021
283.928
283.881
283.787
283.74
283.646
283.599
283.505
283.457
283.362
283.313
283.22
283.166
283.08
283.017
282.939
282.867
282.796
282.719
282.649
282.573
282.499
282.427
282.347
282.28
282.195
282.132
282.042
281.981
281.889
281.829
281.735
281.676
281.58
281.522
281.425
281.367
281.267
281.211
281.109
281.054
280.948
280.895
280.788
280.734
280.626
280.572
280.463
280.409
280.299
280.244
280.133
280.077
279.966
279.91
279.797
279.74
279.627
279.569
279.454
279.397
279.281
279.222
279.105
279.046
278.928
278.868
278.749
278.688
278.567
278.506
278.384
278.322
278.199
278.136
278.011
277.948
277.821
277.757
277.629
277.564
277.434
277.368
277.236
277.169
277.036
276.968
276.833
276.764
276.626
276.557
276.417
276.346
276.204
276.133
275.988
275.915
275.768
275.694
275.545
275.469
275.317
275.239
275.084
275.006
274.847
274.767
274.605
274.523
274.358
274.274
274.105
274.019
273.846
273.758
273.58
273.49
273.308
273.214
273.027
272.931
272.738
272.638
272.439
272.336
272.13
272.023
271.809
271.698
271.476
271.36
271.127
271.006
270.762
270.634
270.377
270.242
269.969
269.824
269.533
269.378
269.065
268.899
268.562
268.382
268.017
267.819
267.419
267.204
266.767
266.534
266.064
265.817
265.225
264.446
263.799
262.972
262.389
261.534
261.012
260.136
259.658
258.756
258.297
257.376
256.908
255.968
255.485
254.511
254.009
252.998
252.476
251.424
250.883
249.794
249.235
248.109
247.534
246.376
245.785
244.597
243.992
242.775
242.156
240.911
240.279
239.006
238.36
237.06
236.399
235.071
234.397
233.041
232.353
230.97
230.268
228.858
228.142
226.705
225.977
224.514
223.773
222.285
221.531
220.018
219.253
217.716
216.939
215.379
214.591
213.008
212.209
210.604
209.794
208.167
207.347
205.7
204.869
203.201
202.361
200.673
199.823
198.116
197.257
195.531
194.663
192.92
192.043
190.282
189.397
187.619
186.726
184.933
184.033
182.225
181.317
179.494
178.58
176.745
175.825
173.978
173.052
171.196
170.264
168.396
167.46
165.615
164.668
162.73
161.784
159.623
159.891
160.591
)
;

boundaryField
{
    sideLeft
    {
        type            symmetryPlane;
    }
    sideRight
    {
        type            zeroGradient;
    }
    topbottom
    {
        type            empty;
    }
    frontback
    {
        type            empty;
    }
}


// ************************************************************************* //
