/*--------------------------------*- C++ -*----------------------------------*\
| =========                 |                                                 |
| \\      /  F ield         | OpenFOAM: The Open Source CFD Toolbox           |
|  \\    /   O peration     | Version:  2.4.0                                 |
|   \\  /    A nd           | Web:      www.OpenFOAM.org                      |
|    \\/     M anipulation  |                                                 |
\*---------------------------------------------------------------------------*/
FoamFile
{
    version     2.0;
    format      ascii;
    class       volVectorField;
    location    "0.18";
    object      U.air;
}
// * * * * * * * * * * * * * * * * * * * * * * * * * * * * * * * * * * * * * //

dimensions      [0 1 -1 0 0 0 0];

internalField   nonuniform List<vector> 
1000
(
(1.42125e-14 0 0)
(2.13158e-14 0 0)
(-6.39482e-14 0 0)
(3.55263e-14 0 0)
(7.10554e-14 0 0)
(2.84216e-13 0 0)
(5.47118e-13 0 0)
(6.6791e-13 0 0)
(7.53175e-13 0 0)
(9.87654e-13 0 0)
(1.07292e-12 0 0)
(1.10134e-12 0 0)
(1.10134e-12 0 0)
(1.03739e-12 0 0)
(9.59232e-13 0 0)
(1.00897e-12 0 0)
(6.32382e-13 0 0)
(4.47643e-13 0 0)
(5.82644e-13 0 0)
(3.97905e-13 0 0)
(3.26848e-13 0 0)
(1.35004e-13 0 0)
(2.13162e-13 0 0)
(4.12115e-13 0 0)
(5.47118e-13 0 0)
(4.12115e-13 0 0)
(3.48166e-13 0 0)
(2.13162e-13 0 0)
(9.94769e-14 0 0)
(-3.41061e-13 0 0)
(-3.76587e-13 0 0)
(-3.05533e-13 0 0)
(-1.27898e-13 0 0)
(2.1317e-14 0 0)
(7.81586e-14 0 0)
(1.13688e-13 0 0)
(-2.55797e-13 0 0)
(-2.06056e-13 0 0)
(-7.10552e-14 0 0)
(2.84225e-14 0 0)
(2.20268e-13 0 0)
(6.39493e-14 0 0)
(1.20792e-13 0 0)
(3.76588e-13 0 0)
(2.13163e-13 0 0)
(2.77112e-13 0 0)
(2.13163e-13 0 0)
(2.13162e-14 0 0)
(1.98952e-13 0 0)
(-4.26327e-14 0 0)
(1.35003e-13 0 0)
(3.48166e-13 0 0)
(4.26326e-13 0 0)
(1.98952e-13 0 0)
(2.77112e-13 0 0)
(2.27374e-13 0 0)
(4.9738e-13 0 0)
(4.33431e-13 0 0)
(2.70007e-13 0 0)
(2.27373e-13 0 0)
(9.94769e-14 0 0)
(7.81586e-14 0 0)
(-3.33955e-13 0 0)
(-3.97903e-13 0 0)
(-2.55796e-13 0 0)
(-2.34479e-13 0 0)
(-3.05534e-13 0 0)
(-2.70006e-13 0 0)
(-1.42108e-13 0 0)
(-1.27898e-13 0 0)
(-9.94757e-14 0 0)
(9.23702e-14 0 0)
(2.3448e-13 0 0)
(1.49214e-13 0 0)
(4.47642e-13 0 0)
(5.40013e-13 0 0)
(3.90798e-13 0 0)
(4.1922e-13 0 0)
(2.77112e-13 0 0)
(3.4106e-13 0 0)
(3.55272e-13 0 0)
(6.03961e-13 0 0)
(6.11067e-13 0 0)
(6.53698e-13 0 0)
(5.47119e-13 0 0)
(6.39488e-13 0 0)
(4.0501e-13 0 0)
(5.18696e-13 0 0)
(6.25278e-13 0 0)
(5.04486e-13 0 0)
(6.82121e-13 0 0)
(7.10543e-13 0 0)
(8.10019e-13 0 0)
(1.0516e-12 0 0)
(8.38441e-13 0 0)
(1.10134e-12 0 0)
(1.10134e-12 0 0)
(1.19371e-12 0 0)
(1.22213e-12 0 0)
(1.21503e-12 0 0)
(1.27187e-12 0 0)
(1.24345e-12 0 0)
(1.20082e-12 0 0)
(9.52127e-13 0 0)
(8.52652e-13 0 0)
(7.67386e-13 0 0)
(7.03437e-13 0 0)
(7.38964e-13 0 0)
(8.17125e-13 0 0)
(9.3081e-13 0 0)
(8.81074e-13 0 0)
(7.81596e-13 0 0)
(5.89751e-13 0 0)
(4.12115e-13 0 0)
(3.4106e-13 0 0)
(3.2685e-13 0 0)
(7.88702e-13 0 0)
(6.537e-13 0 0)
(8.88178e-13 0 0)
(1.08003e-12 0 0)
(9.73443e-13 0 0)
(8.59757e-13 0 0)
(7.31858e-13 0 0)
(2.98429e-13 0 0)
(2.84216e-13 0 0)
(5.25803e-13 0 0)
(5.47117e-13 0 0)
(4.90275e-13 0 0)
(7.03436e-13 0 0)
(3.26851e-13 0 0)
(2.41583e-13 0 0)
(9.94771e-14 0 0)
(5.68429e-14 0 0)
(1.49214e-13 0 0)
(3.19744e-13 0 0)
(2.84218e-13 0 0)
(-7.81597e-14 0 0)
(-1.35003e-13 0 0)
(-3.19744e-13 0 0)
(-5.18696e-13 0 0)
(-6.03961e-13 0 0)
(-6.39489e-13 0 0)
(-8.17124e-13 0 0)
(-1.01608e-12 0 0)
(-9.45021e-13 0 0)
(-8.52652e-13 0 0)
(-7.6028e-13 0 0)
(-5.25802e-13 0 0)
(-3.90798e-13 0 0)
(9.94758e-14 0 0)
(1.20792e-13 0 0)
(3.62377e-13 0 0)
(4.12115e-13 0 0)
(4.61853e-13 0 0)
(5.04486e-13 0 0)
(7.03437e-13 0 0)
(8.17125e-13 0 0)
(7.81596e-13 0 0)
(6.39489e-13 0 0)
(8.73967e-13 0 0)
(7.38965e-13 0 0)
(7.88702e-13 0 0)
(8.95285e-13 0 0)
(8.24229e-13 0 0)
(7.10543e-13 0 0)
(7.03436e-13 0 0)
(5.68435e-13 0 0)
(5.32906e-13 0 0)
(2.70007e-13 0 0)
(1.77635e-13 0 0)
(1.27898e-13 0 0)
(2.629e-13 0 0)
(1.13687e-13 0 0)
(-2.20269e-13 0 0)
(-3.97903e-13 0 0)
(-3.69483e-13 0 0)
(-1.77635e-13 0 0)
(9.23694e-14 0 0)
(3.05534e-13 0 0)
(3.19744e-13 0 0)
(1.42108e-13 0 0)
(2.84217e-13 0 0)
(4.2632e-14 0 0)
(-1.91845e-13 0 0)
(-1.35004e-13 0 0)
(-1.13686e-13 0 0)
(-2.48692e-13 0 0)
(-4.97378e-13 0 0)
(-3.26851e-13 0 0)
(-4.40535e-13 0 0)
(-3.12641e-13 0 0)
(-5.61327e-13 0 0)
(-6.46596e-13 0 0)
(-7.46069e-13 0 0)
(-5.47119e-13 0 0)
(-5.1159e-13 0 0)
(-4.68959e-13 0 0)
(-5.1159e-13 0 0)
(-3.62378e-13 0 0)
(-5.1159e-13 0 0)
(-3.97905e-13 0 0)
(-6.0396e-13 0 0)
(-4.19222e-13 0 0)
(-3.05533e-13 0 0)
(-1.27898e-13 0 0)
(9.94764e-14 0 0)
(2.13162e-13 0 0)
(1.49214e-13 0 0)
(1.5632e-13 0 0)
(4.97378e-14 0 0)
(4.61853e-13 0 0)
(3.05533e-13 0 0)
(-2.84209e-14 0 0)
(2.13162e-13 0 0)
(3.48167e-13 0 0)
(4.54746e-13 0 0)
(5.40013e-13 0 0)
(5.61329e-13 0 0)
(4.90275e-13 0 0)
(4.12115e-13 0 0)
(1.35003e-13 0 0)
(3.62377e-13 0 0)
(5.54223e-13 0 0)
(6.11067e-13 0 0)
(5.82645e-13 0 0)
(5.8975e-13 0 0)
(5.82645e-13 0 0)
(5.32907e-13 0 0)
(2.91322e-13 0 0)
(1.20792e-13 0 0)
(2.55796e-13 0 0)
(3.33955e-13 0 0)
(4.61854e-13 0 0)
(6.89225e-13 0 0)
(3.76589e-13 0 0)
(4.90273e-13 0 0)
(3.76589e-13 0 0)
(2.91321e-13 0 0)
(3.97905e-13 0 0)
(5.82645e-13 0 0)
(5.18696e-13 0 0)
(4.40536e-13 0 0)
(4.19221e-13 0 0)
(6.32382e-13 0 0)
(6.6791e-13 0 0)
(3.55272e-13 0 0)
(3.90798e-13 0 0)
(2.27374e-13 0 0)
(1.84741e-13 0 0)
(9.23705e-14 0 0)
(1.70531e-13 0 0)
(3.12638e-13 0 0)
(3.4106e-13 0 0)
(4.0501e-13 0 0)
(6.60804e-13 0 0)
(7.38965e-13 0 0)
(4.3343e-13 0 0)
(3.69483e-13 0 0)
(2.55795e-13 0 0)
(4.47643e-13 0 0)
(6.75015e-13 0 0)
(9.52128e-13 0 0)
(9.59232e-13 0 0)
(8.2423e-13 0 0)
(7.67387e-13 0 0)
(8.66861e-13 0 0)
(8.59758e-13 0 0)
(8.66861e-13 0 0)
(8.59758e-13 0 0)
(1.10134e-12 0 0)
(1.20082e-12 0 0)
(1.25055e-12 0 0)
(1.32872e-12 0 0)
(1.53477e-12 0 0)
(1.72662e-12 0 0)
(1.71241e-12 0 0)
(1.60583e-12 0 0)
(1.65556e-12 0 0)
(1.47793e-12 0 0)
(1.4353e-12 0 0)
(1.58451e-12 0 0)
(1.92557e-12 0 0)
(1.76215e-12 0 0)
(1.42819e-12 0 0)
(1.28608e-12 0 0)
(1.12266e-12 0 0)
(1.07292e-12 0 0)
(1.15108e-12 0 0)
(9.52127e-13 0 0)
(9.0239e-13 0 0)
(7.74491e-13 0 0)
(5.18697e-13 0 0)
(6.67909e-13 0 0)
(7.46071e-13 0 0)
(7.53174e-13 0 0)
(6.96333e-13 0 0)
(9.45022e-13 0 0)
(8.81073e-13 0 0)
(9.66337e-13 0 0)
(8.02914e-13 0 0)
(5.54222e-13 0 0)
(1.49215e-13 0 0)
(3.26849e-13 0 0)
(2.34479e-13 0 0)
(-2.84214e-14 0 0)
(-3.2685e-13 0 0)
(-5.68436e-14 0 0)
(-1.06581e-13 0 0)
(-9.94764e-14 0 0)
(-3.48165e-13 0 0)
(-1.5632e-13 0 0)
(4.97386e-14 0 0)
(2.13162e-14 0 0)
(2.36587e-19 0 0)
(1.98952e-13 0 0)
(1.63425e-13 0 0)
(1.84741e-13 0 0)
(5.82645e-13 0 0)
(6.67911e-13 0 0)
(5.32906e-13 0 0)
(2.98428e-13 0 0)
(2.34479e-13 0 0)
(1.84741e-13 0 0)
(7.10571e-15 0 0)
(-7.10548e-14 0 0)
(-1.42107e-14 0 0)
(-7.81593e-14 0 0)
(3.97903e-13 0 0)
(5.68435e-13 0 0)
(4.47642e-13 0 0)
(4.61853e-13 0 0)
(5.1159e-13 0 0)
(3.76589e-13 0 0)
(3.26848e-13 0 0)
(5.18698e-13 0 0)
(6.18171e-13 0 0)
(5.04486e-13 0 0)
(5.11591e-13 0 0)
(4.47642e-13 0 0)
(4.40537e-13 0 0)
(6.11066e-13 0 0)
(1.01608e-12 0 0)
(1.33582e-12 0 0)
(1.54898e-12 0 0)
(2.20979e-12 0 0)
(2.55796e-12 0 0)
(3.47455e-12 0 0)
(4.61142e-12 0 0)
(6.04672e-12 0 0)
(8.05045e-12 0 0)
(1.10845e-11 0 0)
(1.5774e-11 0 0)
(2.27871e-11 0 0)
(3.29834e-11 0 0)
(4.84732e-11 0 0)
(7.14664e-11 0 0)
(1.05267e-10 0 0)
(1.55111e-10 0 0)
(2.28496e-10 0 0)
(3.35206e-10 0 0)
(4.90928e-10 0 0)
(7.17265e-10 0 0)
(1.04519e-09 0 0)
(1.51915e-09 0 0)
(2.2021e-09 0 0)
(3.18399e-09 0 0)
(4.59049e-09 0 0)
(6.59997e-09 0 0)
(9.46292e-09 0 0)
(1.35301e-08 0 0)
(1.92906e-08 0 0)
(2.74265e-08 0 0)
(3.8883e-08 0 0)
(5.4968e-08 0 0)
(7.74837e-08 0 0)
(1.08908e-07 0 0)
(1.52632e-07 0 0)
(2.1329e-07 0 0)
(2.97184e-07 0 0)
(4.12859e-07 0 0)
(5.71869e-07 0 0)
(7.89775e-07 0 0)
(1.08746e-06 0 0)
(1.49288e-06 0 0)
(2.04329e-06 0 0)
(2.78819e-06 0 0)
(3.7931e-06 0 0)
(5.14448e-06 0 0)
(6.95594e-06 0 0)
(9.37633e-06 0 0)
(1.25998e-05 0 0)
(1.6879e-05 0 0)
(2.25409e-05 0 0)
(3.00076e-05 0 0)
(3.98218e-05 0 0)
(5.26786e-05 0 0)
(6.94646e-05 0 0)
(9.13068e-05 0 0)
(0.000119632 0 0)
(0.000156238 0 0)
(0.000203383 0 0)
(0.000263893 0 0)
(0.000341286 0 0)
(0.000439924 0 0)
(0.000565197 0 0)
(0.000723735 0 0)
(0.000923652 0 0)
(0.00117485 0 0)
(0.00148933 0 0)
(0.0018816 0 0)
(0.00236914 0 0)
(0.00297283 0 0)
(0.00371757 0 0)
(0.0046329 0 0)
(0.00575367 0 0)
(0.00712081 0 0)
(0.00878213 0 0)
(0.0107932 0 0)
(0.0132184 0 0)
(0.0161315 0 0)
(0.0196172 0 0)
(0.0237717 0 0)
(0.0287039 0 0)
(0.0345363 0 0)
(0.0414059 0 0)
(0.0494648 0 0)
(0.0588814 0 0)
(0.0698403 0 0)
(0.082543 0 0)
(0.0972078 0 0)
(0.11407 0 0)
(0.133381 0 0)
(0.155406 0 0)
(0.180429 0 0)
(0.208742 0 0)
(0.240651 0 0)
(0.276469 0 0)
(0.316519 0 0)
(0.361124 0 0)
(0.41061 0 0)
(0.465301 0 0)
(0.525515 0 0)
(0.591561 0 0)
(0.663737 0 0)
(0.742323 0 0)
(0.827585 0 0)
(0.919764 0 0)
(1.01908 0 0)
(1.12572 0 0)
(1.23985 0 0)
(1.36161 0 0)
(1.49109 0 0)
(1.62837 0 0)
(1.77349 0 0)
(1.92645 0 0)
(2.08723 0 0)
(2.25577 0 0)
(2.432 0 0)
(2.6158 0 0)
(2.80703 0 0)
(3.00554 0 0)
(3.21113 0 0)
(3.42361 0 0)
(3.64276 0 0)
(3.86834 0 0)
(4.10011 0 0)
(4.33782 0 0)
(4.58119 0 0)
(4.82997 0 0)
(5.08388 0 0)
(5.34264 0 0)
(5.60598 0 0)
(5.87364 0 0)
(6.14534 0 0)
(6.42082 0 0)
(6.69982 0 0)
(6.98209 0 0)
(7.26739 0 0)
(7.55549 0 0)
(7.84616 0 0)
(8.13918 0 0)
(8.43435 0 0)
(8.73148 0 0)
(9.03037 0 0)
(9.33086 0 0)
(9.63278 0 0)
(9.93597 0 0)
(10.2403 0 0)
(10.5456 0 0)
(10.8518 0 0)
(11.1587 0 0)
(11.4663 0 0)
(11.7745 0 0)
(12.0831 0 0)
(12.3921 0 0)
(12.7013 0 0)
(13.0109 0 0)
(13.3205 0 0)
(13.6303 0 0)
(13.9402 0 0)
(14.2501 0 0)
(14.56 0 0)
(14.8698 0 0)
(15.1796 0 0)
(15.4892 0 0)
(15.7988 0 0)
(16.1082 0 0)
(16.4174 0 0)
(16.7264 0 0)
(17.0353 0 0)
(17.3439 0 0)
(17.6524 0 0)
(17.9606 0 0)
(18.2687 0 0)
(18.5765 0 0)
(18.8841 0 0)
(19.1915 0 0)
(19.4987 0 0)
(19.8057 0 0)
(20.1125 0 0)
(20.4191 0 0)
(20.7255 0 0)
(21.0317 0 0)
(21.3377 0 0)
(21.6435 0 0)
(21.9491 0 0)
(22.2546 0 0)
(22.5599 0 0)
(22.8651 0 0)
(23.17 0 0)
(23.4749 0 0)
(23.7796 0 0)
(24.0842 0 0)
(24.3886 0 0)
(24.6929 0 0)
(24.9971 0 0)
(25.3012 0 0)
(25.6052 0 0)
(25.9091 0 0)
(26.2129 0 0)
(26.5166 0 0)
(26.8203 0 0)
(27.1238 0 0)
(27.4273 0 0)
(27.7307 0 0)
(28.0341 0 0)
(28.3374 0 0)
(28.6407 0 0)
(28.9439 0 0)
(29.2471 0 0)
(29.5502 0 0)
(29.8534 0 0)
(30.1565 0 0)
(30.4595 0 0)
(30.7626 0 0)
(31.0656 0 0)
(31.3687 0 0)
(31.6717 0 0)
(31.9747 0 0)
(32.2778 0 0)
(32.5808 0 0)
(32.8839 0 0)
(33.1869 0 0)
(33.49 0 0)
(33.7931 0 0)
(34.0962 0 0)
(34.3993 0 0)
(34.7025 0 0)
(35.0057 0 0)
(35.3089 0 0)
(35.6122 0 0)
(35.9154 0 0)
(36.2188 0 0)
(36.5221 0 0)
(36.8256 0 0)
(37.129 0 0)
(37.4325 0 0)
(37.7361 0 0)
(38.0397 0 0)
(38.3433 0 0)
(38.647 0 0)
(38.9508 0 0)
(39.2546 0 0)
(39.5585 0 0)
(39.8625 0 0)
(40.1665 0 0)
(40.4706 0 0)
(40.7748 0 0)
(41.079 0 0)
(41.3833 0 0)
(41.6877 0 0)
(41.9921 0 0)
(42.2967 0 0)
(42.6013 0 0)
(42.906 0 0)
(43.2108 0 0)
(43.5157 0 0)
(43.8207 0 0)
(44.1258 0 0)
(44.431 0 0)
(44.7363 0 0)
(45.0417 0 0)
(45.3473 0 0)
(45.6529 0 0)
(45.9586 0 0)
(46.2645 0 0)
(46.5705 0 0)
(46.8766 0 0)
(47.1829 0 0)
(47.4892 0 0)
(47.7958 0 0)
(48.1024 0 0)
(48.4092 0 0)
(48.7162 0 0)
(49.0233 0 0)
(49.3305 0 0)
(49.6379 0 0)
(49.9455 0 0)
(50.2532 0 0)
(50.5611 0 0)
(50.8692 0 0)
(51.1775 0 0)
(51.4859 0 0)
(51.7945 0 0)
(52.1033 0 0)
(52.4123 0 0)
(52.7214 0 0)
(53.0308 0 0)
(53.3403 0 0)
(53.6501 0 0)
(53.9601 0 0)
(54.2702 0 0)
(54.5806 0 0)
(54.8912 0 0)
(55.202 0 0)
(55.513 0 0)
(55.8243 0 0)
(56.1358 0 0)
(56.4475 0 0)
(56.7594 0 0)
(57.0716 0 0)
(57.384 0 0)
(57.6967 0 0)
(58.0096 0 0)
(58.3227 0 0)
(58.6361 0 0)
(58.9497 0 0)
(59.2637 0 0)
(59.5778 0 0)
(59.8922 0 0)
(60.2069 0 0)
(60.5219 0 0)
(60.8371 0 0)
(61.1526 0 0)
(61.4684 0 0)
(61.7845 0 0)
(62.1009 0 0)
(62.4175 0 0)
(62.7344 0 0)
(63.0517 0 0)
(63.3692 0 0)
(63.687 0 0)
(64.0052 0 0)
(64.3236 0 0)
(64.6424 0 0)
(64.9615 0 0)
(65.2809 0 0)
(65.6006 0 0)
(65.9207 0 0)
(66.2411 0 0)
(66.5618 0 0)
(66.8829 0 0)
(67.2043 0 0)
(67.5261 0 0)
(67.8482 0 0)
(68.1706 0 0)
(68.4935 0 0)
(68.8167 0 0)
(69.1403 0 0)
(69.4642 0 0)
(69.7885 0 0)
(70.1132 0 0)
(70.4383 0 0)
(70.7638 0 0)
(71.0897 0 0)
(71.416 0 0)
(71.7427 0 0)
(72.0698 0 0)
(72.3973 0 0)
(72.7252 0 0)
(73.0536 0 0)
(73.3824 0 0)
(73.7116 0 0)
(74.0413 0 0)
(74.3714 0 0)
(74.7019 0 0)
(75.0329 0 0)
(75.3644 0 0)
(75.6963 0 0)
(76.0287 0 0)
(76.3616 0 0)
(76.695 0 0)
(77.0288 0 0)
(77.3631 0 0)
(77.698 0 0)
(78.0333 0 0)
(78.3691 0 0)
(78.7055 0 0)
(79.0423 0 0)
(79.3797 0 0)
(79.7176 0 0)
(80.0561 0 0)
(80.395 0 0)
(80.7346 0 0)
(81.0746 0 0)
(81.4153 0 0)
(81.7565 0 0)
(82.0983 0 0)
(82.4407 0 0)
(82.7836 0 0)
(83.1272 0 0)
(83.4712 0 0)
(83.8161 0 0)
(84.1613 0 0)
(84.5076 0 0)
(84.8538 0 0)
(85.2016 0 0)
(85.5487 0 0)
(85.8984 0 0)
(86.246 0 0)
(86.5981 0 0)
(86.9456 0 0)
(87.3008 0 0)
(87.6475 0 0)
(88.0068 0 0)
(88.3517 0 0)
(88.7162 0 0)
(89.0582 0 0)
(89.4289 0 0)
(89.7675 0 0)
(90.1446 0 0)
(90.48 0 0)
(90.8626 0 0)
(91.1967 0 0)
(91.5823 0 0)
(91.9185 0 0)
(92.303 0 0)
(92.6461 0 0)
(93.0242 0 0)
(93.38 0 0)
(93.7456 0 0)
(94.1204 0 0)
(94.4675 0 0)
(94.867 0 0)
(95.1907 0 0)
(95.6191 0 0)
(95.9166 0 0)
(96.3748 0 0)
(96.6472 0 0)
(97.1315 0 0)
(97.3858 0 0)
(97.8853 0 0)
(98.1354 0 0)
(98.638 0 0)
(98.8911 0 0)
(99.3963 0 0)
(99.65 0 0)
(100.159 0 0)
(100.414 0 0)
(100.925 0 0)
(101.182 0 0)
(101.696 0 0)
(101.954 0 0)
(102.472 0 0)
(102.732 0 0)
(103.252 0 0)
(103.514 0 0)
(104.037 0 0)
(104.301 0 0)
(104.828 0 0)
(105.092 0 0)
(105.623 0 0)
(105.889 0 0)
(106.423 0 0)
(106.692 0 0)
(107.229 0 0)
(107.5 0 0)
(108.041 0 0)
(108.315 0 0)
(108.856 0 0)
(109.14 0 0)
(109.671 0 0)
(109.978 0 0)
(110.488 0 0)
(110.824 0 0)
(111.309 0 0)
(111.677 0 0)
(112.14 0 0)
(112.532 0 0)
(112.984 0 0)
(113.389 0 0)
(113.838 0 0)
(114.25 0 0)
(114.7 0 0)
(115.119 0 0)
(115.57 0 0)
(115.996 0 0)
(116.448 0 0)
(116.88 0 0)
(117.336 0 0)
(117.771 0 0)
(118.232 0 0)
(118.671 0 0)
(119.136 0 0)
(119.582 0 0)
(120.049 0 0)
(120.502 0 0)
(120.972 0 0)
(121.431 0 0)
(121.906 0 0)
(122.369 0 0)
(122.85 0 0)
(123.319 0 0)
(123.804 0 0)
(124.28 0 0)
(124.77 0 0)
(125.252 0 0)
(125.747 0 0)
(126.236 0 0)
(126.737 0 0)
(127.233 0 0)
(127.74 0 0)
(128.242 0 0)
(128.757 0 0)
(129.265 0 0)
(129.788 0 0)
(130.303 0 0)
(130.833 0 0)
(131.357 0 0)
(131.893 0 0)
(132.428 0 0)
(132.969 0 0)
(133.516 0 0)
(134.062 0 0)
(134.623 0 0)
(135.173 0 0)
(135.748 0 0)
(136.304 0 0)
(136.892 0 0)
(137.456 0 0)
(138.058 0 0)
(138.629 0 0)
(139.246 0 0)
(139.826 0 0)
(140.458 0 0)
(141.048 0 0)
(141.696 0 0)
(142.296 0 0)
(142.96 0 0)
(143.574 0 0)
(144.254 0 0)
(144.884 0 0)
(145.58 0 0)
(146.226 0 0)
(146.941 0 0)
(147.604 0 0)
(148.341 0 0)
(149.021 0 0)
(149.783 0 0)
(150.481 0 0)
(151.271 0 0)
(151.99 0 0)
(152.809 0 0)
(153.552 0 0)
(154.404 0 0)
(155.174 0 0)
(156.061 0 0)
(156.865 0 0)
(157.789 0 0)
(158.633 0 0)
(159.598 0 0)
(160.491 0 0)
(161.498 0 0)
(162.454 0 0)
(163.508 0 0)
(164.541 0 0)
(165.651 0 0)
(166.771 0 0)
(167.948 0 0)
(169.156 0 0)
(170.415 0 0)
(171.717 0 0)
(173.082 0 0)
(174.489 0 0)
(175.979 0 0)
(177.5 0 0)
(179.111 0 0)
(180.74 0 0)
(182.444 0 0)
(184.165 0 0)
(185.911 0 0)
(187.643 0 0)
(189.232 0 0)
(190.788 0 0)
(192.118 0 0)
(193.435 0 0)
(194.488 0 0)
(195.592 0 0)
(196.446 0 0)
(197.423 0 0)
(198.159 0 0)
(199.075 0 0)
(199.75 0 0)
(200.659 0 0)
(201.327 0 0)
(202.283 0 0)
(202.973 0 0)
(203.99 0 0)
(204.709 0 0)
(205.782 0 0)
(206.53 0 0)
(207.641 0 0)
(208.409 0 0)
(209.54 0 0)
(210.315 0 0)
(211.453 0 0)
(212.222 0 0)
(213.358 0 0)
(214.112 0 0)
(215.243 0 0)
(215.979 0 0)
(217.105 0 0)
(217.828 0 0)
(218.946 0 0)
(219.665 0 0)
(220.766 0 0)
(221.494 0 0)
(222.572 0 0)
(223.32 0 0)
(224.366 0 0)
(225.146 0 0)
(226.153 0 0)
(226.968 0 0)
(227.935 0 0)
(228.783 0 0)
(229.716 0 0)
(230.586 0 0)
(231.496 0 0)
(232.376 0 0)
(233.272 0 0)
(234.15 0 0)
(235.04 0 0)
(235.911 0 0)
(236.797 0 0)
(237.661 0 0)
(238.54 0 0)
(239.399 0 0)
(240.268 0 0)
(241.126 0 0)
(241.983 0 0)
(242.841 0 0)
(243.685 0 0)
(244.542 0 0)
(245.374 0 0)
(246.23 0 0)
(247.051 0 0)
(247.908 0 0)
(248.714 0 0)
(249.57 0 0)
(250.364 0 0)
(251.222 0 0)
(252.005 0 0)
(252.863 0 0)
(253.629 0 0)
(254.486 0 0)
(255.239 0 0)
(256.1 0 0)
(256.84 0 0)
(257.701 0 0)
(258.423 0 0)
(259.284 0 0)
(259.992 0 0)
(260.855 0 0)
(261.549 0 0)
(262.411 0 0)
(263.088 0 0)
(263.95 0 0)
(264.607 0 0)
(265.476 0 0)
(266.101 0 0)
(266.993 0 0)
(267.588 0 0)
(268.512 0 0)
(268.972 0 0)
(269.905 0 0)
(270.517 0 0)
(271.871 0 0)
(272.002 0 0)
(270.838 0 0)
(270.852 0 0)
)
;

boundaryField
{
    sideLeft
    {
        type            symmetryPlane;
    }
    sideRight
    {
        type            myWaveTransmissive;
        phi             phi.air;
        rho             rho.air;
        psi             thermo:psi.air;
        gamma           1.4;
        fieldInf        (0 0 0);
        lInf            10;
        value           uniform (269.94 0 0);
    }
    topbottom
    {
        type            empty;
    }
    frontback
    {
        type            empty;
    }
}


// ************************************************************************* //
