/*--------------------------------*- C++ -*----------------------------------*\
| =========                 |                                                 |
| \\      /  F ield         | OpenFOAM: The Open Source CFD Toolbox           |
|  \\    /   O peration     | Version:  2.4.0                                 |
|   \\  /    A nd           | Web:      www.OpenFOAM.org                      |
|    \\/     M anipulation  |                                                 |
\*---------------------------------------------------------------------------*/
FoamFile
{
    version     2.0;
    format      ascii;
    class       volVectorField;
    location    "0.18";
    object      U.airMean;
}
// * * * * * * * * * * * * * * * * * * * * * * * * * * * * * * * * * * * * * //

dimensions      [0 1 -1 0 0 0 0];

internalField   nonuniform List<vector> 
1000
(
(-6.07979e-14 0 0)
(-2.67798e-14 0 0)
(-6.10037e-14 0 0)
(-1.98285e-14 0 0)
(-7.4492e-14 0 0)
(-6.43091e-15 0 0)
(-4.76258e-14 0 0)
(-3.3889e-14 0 0)
(-3.78246e-14 0 0)
(-3.40785e-14 0 0)
(-4.36866e-14 0 0)
(-7.255e-14 0 0)
(-3.03604e-14 0 0)
(-8.63935e-14 0 0)
(-2.48734e-14 0 0)
(-6.68419e-14 0 0)
(-1.70218e-14 0 0)
(-4.85732e-14 0 0)
(5.6246e-15 0 0)
(-7.48471e-14 0 0)
(1.1664e-14 0 0)
(-6.38536e-14 0 0)
(-3.10984e-14 0 0)
(-7.54122e-14 0 0)
(-7.18595e-14 0 0)
(-8.13651e-14 0 0)
(-8.5719e-14 0 0)
(-7.63916e-14 0 0)
(-1.25347e-13 0 0)
(-6.68271e-14 0 0)
(-1.14204e-13 0 0)
(-1.04844e-13 0 0)
(-9.39537e-14 0 0)
(-1.21281e-13 0 0)
(-7.09798e-14 0 0)
(-1.43734e-13 0 0)
(-4.0873e-14 0 0)
(-1.21952e-13 0 0)
(-6.526e-14 0 0)
(-1.18423e-13 0 0)
(-7.83773e-14 0 0)
(-1.14156e-13 0 0)
(-1.00945e-13 0 0)
(-9.5623e-14 0 0)
(-8.09863e-14 0 0)
(-8.25493e-14 0 0)
(-9.09731e-14 0 0)
(-8.24467e-14 0 0)
(-9.76837e-14 0 0)
(-8.9193e-14 0 0)
(-9.38387e-14 0 0)
(-7.00716e-14 0 0)
(-6.54723e-14 0 0)
(-5.07487e-14 0 0)
(-3.24124e-14 0 0)
(-2.40915e-14 0 0)
(-1.91215e-14 0 0)
(-1.75939e-14 0 0)
(-3.24913e-14 0 0)
(-1.07295e-14 0 0)
(-4.34808e-14 0 0)
(2.79041e-14 0 0)
(-7.65395e-15 0 0)
(-8.70395e-15 0 0)
(3.23216e-14 0 0)
(1.54821e-14 0 0)
(4.05125e-14 0 0)
(3.39442e-14 0 0)
(1.48268e-14 0 0)
(2.6349e-14 0 0)
(3.16217e-15 0 0)
(1.30579e-14 0 0)
(-1.30539e-14 0 0)
(1.81699e-14 0 0)
(1.0291e-14 0 0)
(-1.41687e-15 0 0)
(2.32778e-14 0 0)
(2.54243e-15 0 0)
(-2.96445e-15 0 0)
(1.0737e-14 0 0)
(-4.48427e-15 0 0)
(2.25399e-14 0 0)
(-4.81569e-15 0 0)
(4.43099e-14 0 0)
(-2.02185e-14 0 0)
(3.98335e-14 0 0)
(-1.7329e-14 0 0)
(2.00409e-14 0 0)
(-3.87241e-15 0 0)
(-6.99467e-15 0 0)
(1.70528e-14 0 0)
(6.51332e-15 0 0)
(-4.04599e-15 0 0)
(5.03683e-15 0 0)
(-2.03845e-14 0 0)
(5.39565e-15 0 0)
(-5.57809e-14 0 0)
(2.05774e-14 0 0)
(-4.77915e-14 0 0)
(-2.42376e-14 0 0)
(-4.43692e-14 0 0)
(-1.76611e-14 0 0)
(-3.67152e-14 0 0)
(-3.70076e-14 0 0)
(-5.67684e-14 0 0)
(-5.55958e-14 0 0)
(-3.35813e-14 0 0)
(-4.39629e-14 0 0)
(-7.74804e-14 0 0)
(-4.72711e-14 0 0)
(-9.32425e-14 0 0)
(-4.5179e-14 0 0)
(-7.40265e-14 0 0)
(-6.77228e-14 0 0)
(-5.63104e-14 0 0)
(-4.76339e-14 0 0)
(-1.37293e-14 0 0)
(-8.1989e-15 0 0)
(2.46162e-14 0 0)
(-2.11146e-14 0 0)
(4.01611e-14 0 0)
(1.51979e-14 0 0)
(6.57328e-14 0 0)
(2.63496e-14 0 0)
(6.79118e-14 0 0)
(6.73866e-15 0 0)
(6.65025e-14 0 0)
(1.81706e-14 0 0)
(7.50604e-14 0 0)
(3.59927e-16 0 0)
(7.29088e-14 0 0)
(-5.61266e-15 0 0)
(3.61821e-14 0 0)
(1.9627e-14 0 0)
(5.21417e-14 0 0)
(2.53548e-14 0 0)
(3.88943e-14 0 0)
(5.17315e-14 0 0)
(5.4838e-14 0 0)
(6.39134e-14 0 0)
(4.37577e-14 0 0)
(6.19867e-14 0 0)
(1.72192e-14 0 0)
(5.00139e-14 0 0)
(-1.21929e-15 0 0)
(5.20627e-14 0 0)
(2.49835e-14 0 0)
(4.44997e-14 0 0)
(3.77337e-14 0 0)
(4.42313e-14 0 0)
(2.88204e-14 0 0)
(2.24493e-14 0 0)
(1.37569e-14 0 0)
(3.88351e-14 0 0)
(3.77811e-14 0 0)
(7.30318e-14 0 0)
(2.8493e-14 0 0)
(5.84222e-14 0 0)
(1.34057e-14 0 0)
(4.70416e-14 0 0)
(6.36777e-15 0 0)
(7.47526e-14 0 0)
(3.00919e-14 0 0)
(6.56301e-14 0 0)
(5.06897e-14 0 0)
(8.31054e-14 0 0)
(1.51153e-14 0 0)
(8.23869e-14 0 0)
(1.78586e-14 0 0)
(4.03983e-14 0 0)
(1.81702e-14 0 0)
(3.87955e-14 0 0)
(1.56282e-14 0 0)
(4.87587e-14 0 0)
(1.21862e-14 0 0)
(5.8414e-14 0 0)
(-6.22072e-15 0 0)
(6.43786e-14 0 0)
(6.92416e-15 0 0)
(8.67657e-15 0 0)
(1.93109e-14 0 0)
(1.41043e-14 0 0)
(4.03546e-14 0 0)
(-1.02549e-14 0 0)
(6.26811e-14 0 0)
(-6.3509e-15 0 0)
(7.35365e-14 0 0)
(-2.56574e-14 0 0)
(9.27091e-14 0 0)
(1.1405e-14 0 0)
(1.13343e-13 0 0)
(2.12262e-14 0 0)
(1.12206e-13 0 0)
(1.96587e-14 0 0)
(8.55136e-14 0 0)
(2.59706e-14 0 0)
(6.62896e-14 0 0)
(4.30826e-14 0 0)
(7.83214e-14 0 0)
(1.78112e-14 0 0)
(7.86882e-14 0 0)
(-1.03732e-14 0 0)
(1.00952e-13 0 0)
(2.44706e-14 0 0)
(5.30656e-14 0 0)
(4.44722e-14 0 0)
(8.26122e-14 0 0)
(6.87214e-14 0 0)
(6.35424e-14 0 0)
(8.3315e-14 0 0)
(7.95611e-14 0 0)
(1.13793e-13 0 0)
(7.70784e-14 0 0)
(1.39084e-13 0 0)
(8.6055e-14 0 0)
(1.57634e-13 0 0)
(1.19656e-13 0 0)
(1.36243e-13 0 0)
(1.32307e-13 0 0)
(1.25245e-13 0 0)
(1.42144e-13 0 0)
(1.20623e-13 0 0)
(1.57906e-13 0 0)
(1.41958e-13 0 0)
(1.34238e-13 0 0)
(1.65908e-13 0 0)
(1.67668e-13 0 0)
(1.47635e-13 0 0)
(1.60653e-13 0 0)
(1.51042e-13 0 0)
(1.19912e-13 0 0)
(1.35749e-13 0 0)
(8.65524e-14 0 0)
(1.46024e-13 0 0)
(6.95943e-14 0 0)
(1.6721e-13 0 0)
(8.43419e-14 0 0)
(1.41208e-13 0 0)
(7.68613e-14 0 0)
(9.23943e-14 0 0)
(1.00976e-13 0 0)
(1.14405e-13 0 0)
(7.65261e-14 0 0)
(1.50891e-13 0 0)
(1.21223e-13 0 0)
(1.25734e-13 0 0)
(1.46522e-13 0 0)
(1.50789e-13 0 0)
(1.59051e-13 0 0)
(1.62039e-13 0 0)
(1.53312e-13 0 0)
(1.81382e-13 0 0)
(1.76013e-13 0 0)
(1.46045e-13 0 0)
(1.74418e-13 0 0)
(1.29947e-13 0 0)
(1.78121e-13 0 0)
(1.30673e-13 0 0)
(1.71363e-13 0 0)
(1.27808e-13 0 0)
(1.91037e-13 0 0)
(1.54528e-13 0 0)
(1.65529e-13 0 0)
(1.51614e-13 0 0)
(1.30791e-13 0 0)
(1.53054e-13 0 0)
(8.05645e-14 0 0)
(1.80836e-13 0 0)
(9.40213e-14 0 0)
(1.99172e-13 0 0)
(1.18938e-13 0 0)
(2.00925e-13 0 0)
(1.27551e-13 0 0)
(1.58759e-13 0 0)
(1.44288e-13 0 0)
(1.77856e-13 0 0)
(1.18515e-13 0 0)
(1.86675e-13 0 0)
(1.30034e-13 0 0)
(1.69551e-13 0 0)
(1.6322e-13 0 0)
(1.82195e-13 0 0)
(1.83837e-13 0 0)
(1.22656e-13 0 0)
(2.01869e-13 0 0)
(1.56032e-13 0 0)
(1.59809e-13 0 0)
(1.78769e-13 0 0)
(1.80442e-13 0 0)
(1.59028e-13 0 0)
(1.85558e-13 0 0)
(1.74324e-13 0 0)
(2.01466e-13 0 0)
(1.41402e-13 0 0)
(2.25988e-13 0 0)
(1.70811e-13 0 0)
(1.95656e-13 0 0)
(1.89213e-13 0 0)
(2.20059e-13 0 0)
(1.63733e-13 0 0)
(2.3455e-13 0 0)
(1.68257e-13 0 0)
(2.02994e-13 0 0)
(1.72899e-13 0 0)
(1.6551e-13 0 0)
(1.9065e-13 0 0)
(1.89076e-13 0 0)
(1.68746e-13 0 0)
(1.70147e-13 0 0)
(1.28837e-13 0 0)
(1.80872e-13 0 0)
(1.34996e-13 0 0)
(1.55711e-13 0 0)
(1.54247e-13 0 0)
(1.8403e-13 0 0)
(1.74067e-13 0 0)
(2.00554e-13 0 0)
(1.77359e-13 0 0)
(1.6995e-13 0 0)
(2.10711e-13 0 0)
(1.9326e-13 0 0)
(1.87216e-13 0 0)
(2.06353e-13 0 0)
(1.83308e-13 0 0)
(2.01995e-13 0 0)
(1.68119e-13 0 0)
(1.47229e-13 0 0)
(1.70676e-13 0 0)
(1.44043e-13 0 0)
(1.55447e-13 0 0)
(1.75741e-13 0 0)
(1.82467e-13 0 0)
(1.37735e-13 0 0)
(1.95821e-13 0 0)
(1.14698e-13 0 0)
(1.88743e-13 0 0)
(1.22525e-13 0 0)
(1.36559e-13 0 0)
(1.32121e-13 0 0)
(1.26382e-13 0 0)
(1.41019e-13 0 0)
(1.14863e-13 0 0)
(1.34462e-13 0 0)
(8.06905e-14 0 0)
(1.34189e-13 0 0)
(6.50785e-14 0 0)
(1.61395e-13 0 0)
(1.02382e-13 0 0)
(1.4272e-13 0 0)
(1.25407e-13 0 0)
(1.56075e-13 0 0)
(1.72634e-13 0 0)
(2.29146e-13 0 0)
(2.28535e-13 0 0)
(3.73911e-13 0 0)
(4.29634e-13 0 0)
(5.9975e-13 0 0)
(8.33435e-13 0 0)
(1.19019e-12 0 0)
(1.68261e-12 0 0)
(2.42171e-12 0 0)
(3.47708e-12 0 0)
(5.04402e-12 0 0)
(7.34835e-12 0 0)
(1.06652e-11 0 0)
(1.55062e-11 0 0)
(2.23783e-11 0 0)
(3.24396e-11 0 0)
(4.67449e-11 0 0)
(6.73388e-11 0 0)
(9.66734e-11 0 0)
(1.38523e-10 0 0)
(1.97851e-10 0 0)
(2.81931e-10 0 0)
(4.00583e-10 0 0)
(5.67656e-10 0 0)
(8.02115e-10 0 0)
(1.13033e-09 0 0)
(1.58824e-09 0 0)
(2.22551e-09 0 0)
(3.10949e-09 0 0)
(4.33236e-09 0 0)
(6.01875e-09 0 0)
(8.33762e-09 0 0)
(1.15165e-08 0 0)
(1.58613e-08 0 0)
(2.17817e-08 0 0)
(2.98243e-08 0 0)
(4.07167e-08 0 0)
(5.54232e-08 0 0)
(7.52185e-08 0 0)
(1.0178e-07 0 0)
(1.37311e-07 0 0)
(1.84691e-07 0 0)
(2.47672e-07 0 0)
(3.31128e-07 0 0)
(4.41363e-07 0 0)
(5.86507e-07 0 0)
(7.77001e-07 0 0)
(1.02621e-06 0 0)
(1.35118e-06 0 0)
(1.77356e-06 0 0)
(2.32077e-06 0 0)
(3.02736e-06 0 0)
(3.93675e-06 0 0)
(5.10327e-06 0 0)
(6.59466e-06 0 0)
(8.495e-06 0 0)
(1.09083e-05 0 0)
(1.39628e-05 0 0)
(1.78155e-05 0 0)
(2.26588e-05 0 0)
(2.87263e-05 0 0)
(3.63015e-05 0 0)
(4.57265e-05 0 0)
(5.74123e-05 0 0)
(7.1851e-05 0 0)
(8.96289e-05 0 0)
(0.000111442 0 0)
(0.000138111 0 0)
(0.000170604 0 0)
(0.000210052 0 0)
(0.000257774 0 0)
(0.000315301 0 0)
(0.0003844 0 0)
(0.000467104 0 0)
(0.000565739 0 0)
(0.000682954 0 0)
(0.000821751 0 0)
(0.000985517 0 0)
(0.00117806 0 0)
(0.00140362 0 0)
(0.00166693 0 0)
(0.00197321 0 0)
(0.00232823 0 0)
(0.00273829 0 0)
(0.00321027 0 0)
(0.00375164 0 0)
(0.00437045 0 0)
(0.00507537 0 0)
(0.00587566 0 0)
(0.00678119 0 0)
(0.00780238 0 0)
(0.00895024 0 0)
(0.0102363 0 0)
(0.0116727 0 0)
(0.0132719 0 0)
(0.0150468 0 0)
(0.0170109 0 0)
(0.0191778 0 0)
(0.0215616 0 0)
(0.0241764 0 0)
(0.0270367 0 0)
(0.0301569 0 0)
(0.0335517 0 0)
(0.0372357 0 0)
(0.0412233 0 0)
(0.0455291 0 0)
(0.0501673 0 0)
(0.055152 0 0)
(0.060497 0 0)
(0.0662158 0 0)
(0.0723217 0 0)
(0.0788275 0 0)
(0.0857456 0 0)
(0.093088 0 0)
(0.100866 0 0)
(0.109092 0 0)
(0.117775 0 0)
(0.126926 0 0)
(0.136555 0 0)
(0.14667 0 0)
(0.157282 0 0)
(0.168396 0 0)
(0.180023 0 0)
(0.192168 0 0)
(0.204839 0 0)
(0.218043 0 0)
(0.231784 0 0)
(0.246069 0 0)
(0.260903 0 0)
(0.27629 0 0)
(0.292236 0 0)
(0.308743 0 0)
(0.325817 0 0)
(0.34346 0 0)
(0.361675 0 0)
(0.380466 0 0)
(0.399835 0 0)
(0.419784 0 0)
(0.440316 0 0)
(0.461432 0 0)
(0.483135 0 0)
(0.505425 0 0)
(0.528305 0 0)
(0.551776 0 0)
(0.575838 0 0)
(0.600493 0 0)
(0.625743 0 0)
(0.651587 0 0)
(0.678026 0 0)
(0.705061 0 0)
(0.732694 0 0)
(0.760924 0 0)
(0.789751 0 0)
(0.819177 0 0)
(0.849202 0 0)
(0.879826 0 0)
(0.91105 0 0)
(0.942873 0 0)
(0.975297 0 0)
(1.00832 0 0)
(1.04195 0 0)
(1.07617 0 0)
(1.111 0 0)
(1.14643 0 0)
(1.18246 0 0)
(1.2191 0 0)
(1.25634 0 0)
(1.29418 0 0)
(1.33262 0 0)
(1.37167 0 0)
(1.41132 0 0)
(1.45158 0 0)
(1.49244 0 0)
(1.53391 0 0)
(1.57598 0 0)
(1.61866 0 0)
(1.66195 0 0)
(1.70584 0 0)
(1.75034 0 0)
(1.79545 0 0)
(1.84117 0 0)
(1.8875 0 0)
(1.93443 0 0)
(1.98198 0 0)
(2.03014 0 0)
(2.07891 0 0)
(2.12829 0 0)
(2.17828 0 0)
(2.22889 0 0)
(2.28011 0 0)
(2.33194 0 0)
(2.38439 0 0)
(2.43746 0 0)
(2.49114 0 0)
(2.54544 0 0)
(2.60036 0 0)
(2.6559 0 0)
(2.71205 0 0)
(2.76883 0 0)
(2.82622 0 0)
(2.88424 0 0)
(2.94289 0 0)
(3.00215 0 0)
(3.06204 0 0)
(3.12256 0 0)
(3.1837 0 0)
(3.24546 0 0)
(3.30786 0 0)
(3.37088 0 0)
(3.43454 0 0)
(3.49882 0 0)
(3.56373 0 0)
(3.62928 0 0)
(3.69546 0 0)
(3.76228 0 0)
(3.82973 0 0)
(3.89781 0 0)
(3.96654 0 0)
(4.0359 0 0)
(4.1059 0 0)
(4.17654 0 0)
(4.24782 0 0)
(4.31974 0 0)
(4.39231 0 0)
(4.46552 0 0)
(4.53938 0 0)
(4.61388 0 0)
(4.68903 0 0)
(4.76483 0 0)
(4.84128 0 0)
(4.91838 0 0)
(4.99613 0 0)
(5.07453 0 0)
(5.15359 0 0)
(5.2333 0 0)
(5.31367 0 0)
(5.3947 0 0)
(5.47639 0 0)
(5.55873 0 0)
(5.64174 0 0)
(5.72541 0 0)
(5.80974 0 0)
(5.89474 0 0)
(5.9804 0 0)
(6.06673 0 0)
(6.15373 0 0)
(6.2414 0 0)
(6.32974 0 0)
(6.41876 0 0)
(6.50844 0 0)
(6.5988 0 0)
(6.68984 0 0)
(6.78156 0 0)
(6.87395 0 0)
(6.96703 0 0)
(7.06078 0 0)
(7.15523 0 0)
(7.25035 0 0)
(7.34616 0 0)
(7.44266 0 0)
(7.53985 0 0)
(7.63773 0 0)
(7.7363 0 0)
(7.83556 0 0)
(7.93552 0 0)
(8.03618 0 0)
(8.13753 0 0)
(8.23958 0 0)
(8.34234 0 0)
(8.44579 0 0)
(8.54996 0 0)
(8.65482 0 0)
(8.7604 0 0)
(8.86669 0 0)
(8.97368 0 0)
(9.08139 0 0)
(9.18981 0 0)
(9.29895 0 0)
(9.40881 0 0)
(9.51939 0 0)
(9.63069 0 0)
(9.74271 0 0)
(9.85546 0 0)
(9.96893 0 0)
(10.0831 0 0)
(10.1981 0 0)
(10.3137 0 0)
(10.4301 0 0)
(10.5473 0 0)
(10.6651 0 0)
(10.7838 0 0)
(10.9031 0 0)
(11.0232 0 0)
(11.1441 0 0)
(11.2657 0 0)
(11.388 0 0)
(11.5111 0 0)
(11.6349 0 0)
(11.7596 0 0)
(11.8849 0 0)
(12.011 0 0)
(12.1379 0 0)
(12.2656 0 0)
(12.394 0 0)
(12.5232 0 0)
(12.6532 0 0)
(12.7839 0 0)
(12.9154 0 0)
(13.0477 0 0)
(13.1807 0 0)
(13.3146 0 0)
(13.4492 0 0)
(13.5847 0 0)
(13.7209 0 0)
(13.8579 0 0)
(13.9957 0 0)
(14.1343 0 0)
(14.2736 0 0)
(14.4138 0 0)
(14.5548 0 0)
(14.6966 0 0)
(14.8393 0 0)
(14.9827 0 0)
(15.1269 0 0)
(15.272 0 0)
(15.4179 0 0)
(15.5646 0 0)
(15.7121 0 0)
(15.8604 0 0)
(16.0096 0 0)
(16.1596 0 0)
(16.3105 0 0)
(16.4622 0 0)
(16.6147 0 0)
(16.7681 0 0)
(16.9223 0 0)
(17.0774 0 0)
(17.2333 0 0)
(17.3901 0 0)
(17.5478 0 0)
(17.7063 0 0)
(17.8657 0 0)
(18.0259 0 0)
(18.187 0 0)
(18.349 0 0)
(18.5119 0 0)
(18.6757 0 0)
(18.8403 0 0)
(19.0058 0 0)
(19.1722 0 0)
(19.3396 0 0)
(19.5078 0 0)
(19.6769 0 0)
(19.8469 0 0)
(20.0179 0 0)
(20.1897 0 0)
(20.3625 0 0)
(20.5361 0 0)
(20.7107 0 0)
(20.8863 0 0)
(21.0627 0 0)
(21.2401 0 0)
(21.4185 0 0)
(21.5978 0 0)
(21.778 0 0)
(21.9592 0 0)
(22.1413 0 0)
(22.3244 0 0)
(22.5084 0 0)
(22.6935 0 0)
(22.8795 0 0)
(23.0664 0 0)
(23.2544 0 0)
(23.4433 0 0)
(23.6332 0 0)
(23.8241 0 0)
(24.0161 0 0)
(24.209 0 0)
(24.4029 0 0)
(24.5978 0 0)
(24.7938 0 0)
(24.9907 0 0)
(25.1888 0 0)
(25.3877 0 0)
(25.5879 0 0)
(25.7888 0 0)
(25.9912 0 0)
(26.1941 0 0)
(26.3988 0 0)
(26.6036 0 0)
(26.8105 0 0)
(27.0174 0 0)
(27.2266 0 0)
(27.4355 0 0)
(27.647 0 0)
(27.8579 0 0)
(28.0718 0 0)
(28.2848 0 0)
(28.501 0 0)
(28.7162 0 0)
(28.9345 0 0)
(29.1521 0 0)
(29.3725 0 0)
(29.5927 0 0)
(29.815 0 0)
(30.038 0 0)
(30.262 0 0)
(30.488 0 0)
(30.7137 0 0)
(30.9428 0 0)
(31.17 0 0)
(31.4023 0 0)
(31.6311 0 0)
(31.8667 0 0)
(32.0971 0 0)
(32.3359 0 0)
(32.5679 0 0)
(32.8101 0 0)
(33.0437 0 0)
(33.2893 0 0)
(33.5246 0 0)
(33.7736 0 0)
(34.0105 0 0)
(34.263 0 0)
(34.5016 0 0)
(34.7576 0 0)
(34.998 0 0)
(35.2575 0 0)
(35.4996 0 0)
(35.7628 0 0)
(36.0066 0 0)
(36.2734 0 0)
(36.5191 0 0)
(36.7896 0 0)
(37.0371 0 0)
(37.3114 0 0)
(37.5607 0 0)
(37.8388 0 0)
(38.09 0 0)
(38.372 0 0)
(38.6252 0 0)
(38.9109 0 0)
(39.1663 0 0)
(39.4557 0 0)
(39.7135 0 0)
(40.0065 0 0)
(40.2669 0 0)
(40.5633 0 0)
(40.8264 0 0)
(41.1264 0 0)
(41.3923 0 0)
(41.6958 0 0)
(41.9646 0 0)
(42.2716 0 0)
(42.5434 0 0)
(42.8541 0 0)
(43.1288 0 0)
(43.4432 0 0)
(43.721 0 0)
(44.0391 0 0)
(44.32 0 0)
(44.6421 0 0)
(44.9262 0 0)
(45.2521 0 0)
(45.5394 0 0)
(45.8694 0 0)
(46.1601 0 0)
(46.4941 0 0)
(46.7881 0 0)
(47.1263 0 0)
(47.4239 0 0)
(47.7663 0 0)
(48.0674 0 0)
(48.4142 0 0)
(48.719 0 0)
(49.0702 0 0)
(49.3787 0 0)
(49.7345 0 0)
(50.0469 0 0)
(50.4073 0 0)
(50.7236 0 0)
(51.0888 0 0)
(51.4092 0 0)
(51.7793 0 0)
(52.1038 0 0)
(52.479 0 0)
(52.8078 0 0)
(53.1882 0 0)
(53.5214 0 0)
(53.9071 0 0)
(54.2448 0 0)
(54.6361 0 0)
(54.9785 0 0)
(55.3754 0 0)
(55.7227 0 0)
(56.1253 0 0)
(56.4777 0 0)
(56.8864 0 0)
(57.2441 0 0)
(57.6589 0 0)
(58.022 0 0)
(58.4432 0 0)
(58.8121 0 0)
(59.2399 0 0)
(59.6147 0 0)
(60.0494 0 0)
(60.4304 0 0)
(60.8723 0 0)
(61.2597 0 0)
(61.7091 0 0)
(62.1033 0 0)
(62.5606 0 0)
(62.9619 0 0)
(63.4273 0 0)
(63.8362 0 0)
(64.3102 0 0)
(64.727 0 0)
(65.2102 0 0)
(65.6353 0 0)
(66.1281 0 0)
(66.5623 0 0)
(67.0652 0 0)
(67.509 0 0)
(68.0228 0 0)
(68.477 0 0)
(69.0023 0 0)
(69.4678 0 0)
(70.0055 0 0)
(70.4833 0 0)
(71.0345 0 0)
(71.5257 0 0)
(72.0915 0 0)
(72.5973 0 0)
(73.1793 0 0)
(73.7012 0 0)
(74.3008 0 0)
(74.8403 0 0)
(75.4593 0 0)
(76.0178 0 0)
(76.6575 0 0)
(77.2361 0 0)
(77.8974 0 0)
(78.4964 0 0)
(79.1787 0 0)
(79.7963 0 0)
(80.496 0 0)
(81.1259 0 0)
(81.8329 0 0)
(82.459 0 0)
(83.1543 0 0)
(83.7381 0 0)
(84.3796 0 0)
(84.9094 0 0)
(85.5035 0 0)
(85.996 0 0)
(86.5645 0 0)
(87.0411 0 0)
(87.6041 0 0)
(88.0802 0 0)
(88.6494 0 0)
(89.1328 0 0)
(89.7123 0 0)
(90.2051 0 0)
(90.7944 0 0)
(91.2949 0 0)
(91.8917 0 0)
(92.3972 0 0)
(92.9992 0 0)
(93.5074 0 0)
(94.1128 0 0)
(94.6222 0 0)
(95.2299 0 0)
(95.7399 0 0)
(96.3494 0 0)
(96.8598 0 0)
(97.4712 0 0)
(97.9819 0 0)
(98.5952 0 0)
(99.1064 0 0)
(99.7218 0 0)
(100.233 0 0)
(100.851 0 0)
(101.363 0 0)
(101.982 0 0)
(102.494 0 0)
(103.115 0 0)
(103.627 0 0)
(104.25 0 0)
(104.762 0 0)
(105.385 0 0)
(105.896 0 0)
(106.52 0 0)
(107.031 0 0)
(107.654 0 0)
(108.165 0 0)
(108.788 0 0)
(109.297 0 0)
(109.92 0 0)
(110.428 0 0)
(111.049 0 0)
(111.556 0 0)
(112.176 0 0)
(112.681 0 0)
(113.3 0 0)
(113.802 0 0)
(114.42 0 0)
(114.919 0 0)
(115.534 0 0)
(116.031 0 0)
(116.643 0 0)
(117.135 0 0)
(117.744 0 0)
(118.231 0 0)
(118.834 0 0)
(119.314 0 0)
(119.91 0 0)
(120.381 0 0)
(120.968 0 0)
(121.428 0 0)
(122.004 0 0)
(122.451 0 0)
(123.012 0 0)
(123.442 0 0)
(123.987 0 0)
(124.399 0 0)
(124.924 0 0)
(125.314 0 0)
(125.822 0 0)
(126.195 0 0)
(126.682 0 0)
(127.022 0 0)
(127.477 0 0)
(127.762 0 0)
(128.178 0 0)
(128.393 0 0)
(128.763 0 0)
(128.894 0 0)
(129.212 0 0)
(129.242 0 0)
(129.488 0 0)
(129.381 0 0)
(129.53 0 0)
(129.226 0 0)
(129.248 0 0)
(128.719 0 0)
(128.506 0 0)
(127.625 0 0)
(128.362 0 0)
)
;

boundaryField
{
    sideLeft
    {
        type            symmetryPlane;
    }
    sideRight
    {
        type            calculated;
        value           uniform (127.88 0 0);
    }
    topbottom
    {
        type            empty;
    }
    frontback
    {
        type            empty;
    }
}


// ************************************************************************* //
