/*--------------------------------*- C++ -*----------------------------------*\
| =========                 |                                                 |
| \\      /  F ield         | OpenFOAM: The Open Source CFD Toolbox           |
|  \\    /   O peration     | Version:  2.4.0                                 |
|   \\  /    A nd           | Web:      www.OpenFOAM.org                      |
|    \\/     M anipulation  |                                                 |
\*---------------------------------------------------------------------------*/
FoamFile
{
    version     2.0;
    format      ascii;
    class       volVectorField;
    location    "0.18";
    object      U.water;
}
// * * * * * * * * * * * * * * * * * * * * * * * * * * * * * * * * * * * * * //

dimensions      [0 1 -1 0 0 0 0];

internalField   nonuniform List<vector> 
1000
(
(-7.1038e-15 0 0)
(-1.42113e-14 0 0)
(-1.42102e-14 0 0)
(6.3948e-14 0 0)
(7.10656e-15 0 0)
(2.98427e-13 0 0)
(5.68435e-13 0 0)
(6.60805e-13 0 0)
(7.95808e-13 0 0)
(9.9476e-13 0 0)
(9.80549e-13 0 0)
(1.08003e-12 0 0)
(1.15108e-12 0 0)
(1.0445e-12 0 0)
(9.59232e-13 0 0)
(1.03029e-12 0 0)
(6.60804e-13 0 0)
(4.26326e-13 0 0)
(5.40011e-13 0 0)
(4.05011e-13 0 0)
(3.5527e-13 0 0)
(1.20793e-13 0 0)
(2.20268e-13 0 0)
(3.55272e-13 0 0)
(4.90274e-13 0 0)
(4.54747e-13 0 0)
(4.47642e-13 0 0)
(2.41584e-13 0 0)
(2.84227e-14 0 0)
(-3.76589e-13 0 0)
(-3.97903e-13 0 0)
(-3.05533e-13 0 0)
(-1.35003e-13 0 0)
(4.97387e-14 0 0)
(1.0658e-13 0 0)
(4.97396e-14 0 0)
(-2.48692e-13 0 0)
(-1.35002e-13 0 0)
(-7.10552e-14 0 0)
(-7.10462e-15 0 0)
(2.13162e-13 0 0)
(1.20793e-13 0 0)
(1.42109e-13 0 0)
(3.55271e-13 0 0)
(2.13163e-13 0 0)
(2.13163e-13 0 0)
(1.91847e-13 0 0)
(6.39487e-14 0 0)
(1.98952e-13 0 0)
(-7.10556e-15 0 0)
(2.13163e-13 0 0)
(3.26849e-13 0 0)
(4.12115e-13 0 0)
(1.84741e-13 0 0)
(2.13163e-13 0 0)
(2.62901e-13 0 0)
(4.83169e-13 0 0)
(4.05009e-13 0 0)
(2.77112e-13 0 0)
(2.06057e-13 0 0)
(1.77637e-13 0 0)
(1.49213e-13 0 0)
(-4.05009e-13 0 0)
(-4.40536e-13 0 0)
(-2.20269e-13 0 0)
(-2.27373e-13 0 0)
(-2.91323e-13 0 0)
(-3.05534e-13 0 0)
(-1.7053e-13 0 0)
(-9.23708e-14 0 0)
(-1.20792e-13 0 0)
(4.26323e-14 0 0)
(2.06058e-13 0 0)
(2.41584e-13 0 0)
(4.76064e-13 0 0)
(4.90275e-13 0 0)
(4.1922e-13 0 0)
(4.47642e-13 0 0)
(2.4869e-13 0 0)
(2.91322e-13 0 0)
(3.19745e-13 0 0)
(5.61328e-13 0 0)
(6.32384e-13 0 0)
(7.17647e-13 0 0)
(5.40014e-13 0 0)
(5.75539e-13 0 0)
(3.97905e-13 0 0)
(5.18696e-13 0 0)
(6.03961e-13 0 0)
(5.32907e-13 0 0)
(6.82121e-13 0 0)
(7.60281e-13 0 0)
(8.38441e-13 0 0)
(1.0445e-12 0 0)
(8.66863e-13 0 0)
(1.08002e-12 0 0)
(1.09424e-12 0 0)
(1.20792e-12 0 0)
(1.25766e-12 0 0)
(1.18661e-12 0 0)
(1.25056e-12 0 0)
(1.26477e-12 0 0)
(1.20082e-12 0 0)
(9.30811e-13 0 0)
(8.38441e-13 0 0)
(8.31335e-13 0 0)
(7.03437e-13 0 0)
(7.24753e-13 0 0)
(8.59757e-13 0 0)
(9.3081e-13 0 0)
(8.88179e-13 0 0)
(7.88702e-13 0 0)
(6.03962e-13 0 0)
(4.33431e-13 0 0)
(3.05533e-13 0 0)
(3.12639e-13 0 0)
(7.81597e-13 0 0)
(5.89751e-13 0 0)
(9.09494e-13 0 0)
(1.11555e-12 0 0)
(9.66337e-13 0 0)
(8.73968e-13 0 0)
(7.46069e-13 0 0)
(2.62902e-13 0 0)
(2.41584e-13 0 0)
(5.54224e-13 0 0)
(5.96855e-13 0 0)
(5.11592e-13 0 0)
(6.89225e-13 0 0)
(3.33956e-13 0 0)
(2.41583e-13 0 0)
(1.13688e-13 0 0)
(7.81592e-14 0 0)
(1.27898e-13 0 0)
(2.91322e-13 0 0)
(2.70007e-13 0 0)
(-8.52651e-14 0 0)
(-1.42109e-13 0 0)
(-2.84217e-13 0 0)
(-4.9738e-13 0 0)
(-5.75539e-13 0 0)
(-6.25278e-13 0 0)
(-8.66861e-13 0 0)
(-9.87655e-13 0 0)
(-9.73443e-13 0 0)
(-8.95285e-13 0 0)
(-7.4607e-13 0 0)
(-5.25802e-13 0 0)
(-4.05009e-13 0 0)
(1.13687e-13 0 0)
(1.27898e-13 0 0)
(3.33955e-13 0 0)
(4.19221e-13 0 0)
(4.54747e-13 0 0)
(5.32907e-13 0 0)
(7.46069e-13 0 0)
(7.95809e-13 0 0)
(7.6028e-13 0 0)
(6.25278e-13 0 0)
(8.3844e-13 0 0)
(7.3186e-13 0 0)
(7.88702e-13 0 0)
(9.37917e-13 0 0)
(8.59756e-13 0 0)
(6.82121e-13 0 0)
(6.89226e-13 0 0)
(5.6133e-13 0 0)
(5.68433e-13 0 0)
(2.98429e-13 0 0)
(1.35003e-13 0 0)
(1.27898e-13 0 0)
(2.77111e-13 0 0)
(5.68439e-14 0 0)
(-1.77636e-13 0 0)
(-3.55271e-13 0 0)
(-4.19221e-13 0 0)
(-1.8474e-13 0 0)
(6.39477e-14 0 0)
(2.70007e-13 0 0)
(3.41061e-13 0 0)
(1.77636e-13 0 0)
(2.62901e-13 0 0)
(3.55265e-14 0 0)
(-1.49213e-13 0 0)
(-1.20794e-13 0 0)
(-1.49213e-13 0 0)
(-1.98954e-13 0 0)
(-4.68956e-13 0 0)
(-3.97906e-13 0 0)
(-4.83167e-13 0 0)
(-2.55797e-13 0 0)
(-5.47116e-13 0 0)
(-6.82123e-13 0 0)
(-7.24752e-13 0 0)
(-5.54224e-13 0 0)
(-5.47117e-13 0 0)
(-4.33432e-13 0 0)
(-4.76063e-13 0 0)
(-3.76589e-13 0 0)
(-5.04484e-13 0 0)
(-3.97905e-13 0 0)
(-6.11065e-13 0 0)
(-4.54749e-13 0 0)
(-2.91322e-13 0 0)
(-7.10545e-14 0 0)
(9.23709e-14 0 0)
(1.63424e-13 0 0)
(1.13687e-13 0 0)
(1.91847e-13 0 0)
(1.35003e-13 0 0)
(4.54748e-13 0 0)
(2.41584e-13 0 0)
(-6.3948e-14 0 0)
(2.34478e-13 0 0)
(3.76589e-13 0 0)
(5.1159e-13 0 0)
(5.40013e-13 0 0)
(5.61329e-13 0 0)
(5.32907e-13 0 0)
(3.83693e-13 0 0)
(1.06581e-13 0 0)
(3.05534e-13 0 0)
(5.68434e-13 0 0)
(6.82121e-13 0 0)
(5.96856e-13 0 0)
(5.40012e-13 0 0)
(5.47118e-13 0 0)
(5.82645e-13 0 0)
(3.19744e-13 0 0)
(1.27898e-13 0 0)
(3.19745e-13 0 0)
(2.98427e-13 0 0)
(4.12116e-13 0 0)
(7.10542e-13 0 0)
(3.62378e-13 0 0)
(5.18695e-13 0 0)
(3.76589e-13 0 0)
(2.77111e-13 0 0)
(3.83694e-13 0 0)
(5.40013e-13 0 0)
(5.18696e-13 0 0)
(3.97903e-13 0 0)
(3.69483e-13 0 0)
(6.75015e-13 0 0)
(7.24754e-13 0 0)
(3.83693e-13 0 0)
(3.4106e-13 0 0)
(2.4869e-13 0 0)
(2.41585e-13 0 0)
(7.10542e-14 0 0)
(1.70531e-13 0 0)
(2.84217e-13 0 0)
(2.98428e-13 0 0)
(4.0501e-13 0 0)
(6.8212e-13 0 0)
(7.17649e-13 0 0)
(4.12114e-13 0 0)
(3.90799e-13 0 0)
(3.12638e-13 0 0)
(4.47643e-13 0 0)
(6.75015e-13 0 0)
(9.30811e-13 0 0)
(8.81073e-13 0 0)
(7.95808e-13 0 0)
(7.81597e-13 0 0)
(9.09494e-13 0 0)
(8.1002e-13 0 0)
(8.31333e-13 0 0)
(9.16602e-13 0 0)
(1.13687e-12 0 0)
(1.21503e-12 0 0)
(1.24345e-12 0 0)
(1.3145e-12 0 0)
(1.50635e-12 0 0)
(1.71951e-12 0 0)
(1.80478e-12 0 0)
(1.64846e-12 0 0)
(1.5703e-12 0 0)
(1.47082e-12 0 0)
(1.48503e-12 0 0)
(1.58451e-12 0 0)
(1.93268e-12 0 0)
(1.78346e-12 0 0)
(1.4353e-12 0 0)
(1.3074e-12 0 0)
(1.13687e-12 0 0)
(1.03739e-12 0 0)
(1.10845e-12 0 0)
(9.87654e-13 0 0)
(9.45022e-13 0 0)
(7.31859e-13 0 0)
(4.90275e-13 0 0)
(6.8212e-13 0 0)
(7.46071e-13 0 0)
(7.38963e-13 0 0)
(6.96333e-13 0 0)
(9.59233e-13 0 0)
(8.88179e-13 0 0)
(9.59232e-13 0 0)
(7.95809e-13 0 0)
(5.68433e-13 0 0)
(1.77637e-13 0 0)
(3.69482e-13 0 0)
(1.7053e-13 0 0)
(-9.94757e-14 0 0)
(-2.84217e-13 0 0)
(7.10524e-15 0 0)
(-1.56319e-13 0 0)
(-1.98952e-13 0 0)
(-3.19743e-13 0 0)
(-1.35004e-13 0 0)
(1.42115e-14 0 0)
(4.97379e-14 0 0)
(1.42111e-14 0 0)
(1.77635e-13 0 0)
(1.5632e-13 0 0)
(1.56319e-13 0 0)
(5.54224e-13 0 0)
(6.82122e-13 0 0)
(5.61328e-13 0 0)
(2.98428e-13 0 0)
(2.62901e-13 0 0)
(1.91846e-13 0 0)
(-2.84214e-14 0 0)
(-7.10548e-14 0 0)
(-1.42107e-14 0 0)
(-4.26321e-14 0 0)
(4.26325e-13 0 0)
(5.47118e-13 0 0)
(4.40537e-13 0 0)
(4.61853e-13 0 0)
(5.40012e-13 0 0)
(4.12116e-13 0 0)
(3.05532e-13 0 0)
(4.90276e-13 0 0)
(6.53698e-13 0 0)
(5.04486e-13 0 0)
(5.40012e-13 0 0)
(4.76064e-13 0 0)
(4.54747e-13 0 0)
(6.11066e-13 0 0)
(9.66339e-13 0 0)
(1.33582e-12 0 0)
(1.57741e-12 0 0)
(2.20268e-12 0 0)
(2.55085e-12 0 0)
(3.47455e-12 0 0)
(4.5759e-12 0 0)
(5.98277e-12 0 0)
(7.9865e-12 0 0)
(1.10774e-11 0 0)
(1.57527e-11 0 0)
(2.27587e-11 0 0)
(3.29479e-11 0 0)
(4.83098e-11 0 0)
(7.12888e-11 0 0)
(1.04997e-10 0 0)
(1.5465e-10 0 0)
(2.27871e-10 0 0)
(3.34346e-10 0 0)
(4.89713e-10 0 0)
(7.15538e-10 0 0)
(1.04264e-09 0 0)
(1.51543e-09 0 0)
(2.19694e-09 0 0)
(3.17661e-09 0 0)
(4.57993e-09 0 0)
(6.58518e-09 0 0)
(9.44206e-09 0 0)
(1.35006e-08 0 0)
(1.92493e-08 0 0)
(2.73687e-08 0 0)
(3.88025e-08 0 0)
(5.48562e-08 0 0)
(7.73289e-08 0 0)
(1.08694e-07 0 0)
(1.52338e-07 0 0)
(2.12886e-07 0 0)
(2.96631e-07 0 0)
(4.12106e-07 0 0)
(5.70846e-07 0 0)
(7.88389e-07 0 0)
(1.08559e-06 0 0)
(1.49037e-06 0 0)
(2.03991e-06 0 0)
(2.78367e-06 0 0)
(3.78708e-06 0 0)
(5.13648e-06 0 0)
(6.94537e-06 0 0)
(9.36238e-06 0 0)
(1.25815e-05 0 0)
(1.6855e-05 0 0)
(2.25095e-05 0 0)
(2.99668e-05 0 0)
(3.9769e-05 0 0)
(5.26103e-05 0 0)
(6.93768e-05 0 0)
(9.11942e-05 0 0)
(0.000119488 0 0)
(0.000156055 0 0)
(0.000203151 0 0)
(0.0002636 0 0)
(0.000340916 0 0)
(0.000439461 0 0)
(0.000564619 0 0)
(0.000723015 0 0)
(0.00092276 0 0)
(0.00117374 0 0)
(0.00148797 0 0)
(0.00187995 0 0)
(0.00236712 0 0)
(0.00297037 0 0)
(0.0037146 0 0)
(0.00462933 0 0)
(0.00574938 0 0)
(0.00711569 0 0)
(0.00877604 0 0)
(0.010786 0 0)
(0.0132099 0 0)
(0.0161215 0 0)
(0.0196055 0 0)
(0.0237581 0 0)
(0.0286882 0 0)
(0.0345182 0 0)
(0.0413851 0 0)
(0.0494411 0 0)
(0.0588545 0 0)
(0.0698099 0 0)
(0.0825088 0 0)
(0.0971695 0 0)
(0.114027 0 0)
(0.133333 0 0)
(0.155354 0 0)
(0.180372 0 0)
(0.208679 0 0)
(0.240583 0 0)
(0.276396 0 0)
(0.31644 0 0)
(0.36104 0 0)
(0.410521 0 0)
(0.465207 0 0)
(0.525416 0 0)
(0.591457 0 0)
(0.663628 0 0)
(0.742211 0 0)
(0.827469 0 0)
(0.919645 0 0)
(1.01896 0 0)
(1.1256 0 0)
(1.23973 0 0)
(1.36148 0 0)
(1.49096 0 0)
(1.62824 0 0)
(1.77336 0 0)
(1.92633 0 0)
(2.08711 0 0)
(2.25566 0 0)
(2.43189 0 0)
(2.6157 0 0)
(2.80693 0 0)
(3.00544 0 0)
(3.21104 0 0)
(3.42352 0 0)
(3.64268 0 0)
(3.86827 0 0)
(4.10005 0 0)
(4.33776 0 0)
(4.58114 0 0)
(4.82992 0 0)
(5.08383 0 0)
(5.3426 0 0)
(5.60595 0 0)
(5.87361 0 0)
(6.14532 0 0)
(6.4208 0 0)
(6.6998 0 0)
(6.98208 0 0)
(7.26739 0 0)
(7.55549 0 0)
(7.84616 0 0)
(8.13919 0 0)
(8.43436 0 0)
(8.73149 0 0)
(9.03039 0 0)
(9.33088 0 0)
(9.6328 0 0)
(9.936 0 0)
(10.2403 0 0)
(10.5456 0 0)
(10.8518 0 0)
(11.1588 0 0)
(11.4664 0 0)
(11.7745 0 0)
(12.0831 0 0)
(12.3921 0 0)
(12.7014 0 0)
(13.0109 0 0)
(13.3206 0 0)
(13.6304 0 0)
(13.9403 0 0)
(14.2502 0 0)
(14.56 0 0)
(14.8699 0 0)
(15.1796 0 0)
(15.4893 0 0)
(15.7988 0 0)
(16.1082 0 0)
(16.4174 0 0)
(16.7265 0 0)
(17.0353 0 0)
(17.344 0 0)
(17.6524 0 0)
(17.9607 0 0)
(18.2687 0 0)
(18.5766 0 0)
(18.8842 0 0)
(19.1916 0 0)
(19.4988 0 0)
(19.8058 0 0)
(20.1125 0 0)
(20.4191 0 0)
(20.7255 0 0)
(21.0317 0 0)
(21.3377 0 0)
(21.6435 0 0)
(21.9492 0 0)
(22.2546 0 0)
(22.5599 0 0)
(22.8651 0 0)
(23.1701 0 0)
(23.4749 0 0)
(23.7796 0 0)
(24.0842 0 0)
(24.3886 0 0)
(24.693 0 0)
(24.9972 0 0)
(25.3013 0 0)
(25.6052 0 0)
(25.9091 0 0)
(26.2129 0 0)
(26.5166 0 0)
(26.8203 0 0)
(27.1238 0 0)
(27.4273 0 0)
(27.7308 0 0)
(28.0341 0 0)
(28.3374 0 0)
(28.6407 0 0)
(28.9439 0 0)
(29.2471 0 0)
(29.5503 0 0)
(29.8534 0 0)
(30.1565 0 0)
(30.4596 0 0)
(30.7626 0 0)
(31.0657 0 0)
(31.3687 0 0)
(31.6717 0 0)
(31.9748 0 0)
(32.2778 0 0)
(32.5808 0 0)
(32.8839 0 0)
(33.1869 0 0)
(33.49 0 0)
(33.7931 0 0)
(34.0962 0 0)
(34.3993 0 0)
(34.7025 0 0)
(35.0057 0 0)
(35.3089 0 0)
(35.6122 0 0)
(35.9155 0 0)
(36.2188 0 0)
(36.5222 0 0)
(36.8256 0 0)
(37.129 0 0)
(37.4325 0 0)
(37.7361 0 0)
(38.0397 0 0)
(38.3434 0 0)
(38.6471 0 0)
(38.9508 0 0)
(39.2547 0 0)
(39.5586 0 0)
(39.8625 0 0)
(40.1665 0 0)
(40.4706 0 0)
(40.7748 0 0)
(41.079 0 0)
(41.3833 0 0)
(41.6877 0 0)
(41.9922 0 0)
(42.2967 0 0)
(42.6013 0 0)
(42.906 0 0)
(43.2109 0 0)
(43.5158 0 0)
(43.8208 0 0)
(44.1258 0 0)
(44.431 0 0)
(44.7363 0 0)
(45.0418 0 0)
(45.3473 0 0)
(45.6529 0 0)
(45.9587 0 0)
(46.2645 0 0)
(46.5705 0 0)
(46.8766 0 0)
(47.1829 0 0)
(47.4893 0 0)
(47.7958 0 0)
(48.1024 0 0)
(48.4092 0 0)
(48.7162 0 0)
(49.0233 0 0)
(49.3305 0 0)
(49.638 0 0)
(49.9455 0 0)
(50.2533 0 0)
(50.5612 0 0)
(50.8692 0 0)
(51.1775 0 0)
(51.4859 0 0)
(51.7945 0 0)
(52.1033 0 0)
(52.4123 0 0)
(52.7214 0 0)
(53.0308 0 0)
(53.3404 0 0)
(53.6501 0 0)
(53.9601 0 0)
(54.2702 0 0)
(54.5806 0 0)
(54.8912 0 0)
(55.202 0 0)
(55.5131 0 0)
(55.8243 0 0)
(56.1358 0 0)
(56.4475 0 0)
(56.7594 0 0)
(57.0716 0 0)
(57.384 0 0)
(57.6967 0 0)
(58.0096 0 0)
(58.3227 0 0)
(58.6361 0 0)
(58.9498 0 0)
(59.2637 0 0)
(59.5778 0 0)
(59.8923 0 0)
(60.207 0 0)
(60.5219 0 0)
(60.8371 0 0)
(61.1527 0 0)
(61.4684 0 0)
(61.7845 0 0)
(62.1009 0 0)
(62.4175 0 0)
(62.7345 0 0)
(63.0517 0 0)
(63.3692 0 0)
(63.6871 0 0)
(64.0052 0 0)
(64.3236 0 0)
(64.6424 0 0)
(64.9615 0 0)
(65.2809 0 0)
(65.6006 0 0)
(65.9207 0 0)
(66.2411 0 0)
(66.5618 0 0)
(66.8829 0 0)
(67.2043 0 0)
(67.5261 0 0)
(67.8482 0 0)
(68.1707 0 0)
(68.4935 0 0)
(68.8167 0 0)
(69.1403 0 0)
(69.4642 0 0)
(69.7885 0 0)
(70.1132 0 0)
(70.4383 0 0)
(70.7638 0 0)
(71.0897 0 0)
(71.416 0 0)
(71.7427 0 0)
(72.0698 0 0)
(72.3973 0 0)
(72.7252 0 0)
(73.0536 0 0)
(73.3824 0 0)
(73.7116 0 0)
(74.0413 0 0)
(74.3714 0 0)
(74.7019 0 0)
(75.0329 0 0)
(75.3644 0 0)
(75.6963 0 0)
(76.0287 0 0)
(76.3616 0 0)
(76.695 0 0)
(77.0288 0 0)
(77.3631 0 0)
(77.698 0 0)
(78.0333 0 0)
(78.3691 0 0)
(78.7055 0 0)
(79.0423 0 0)
(79.3797 0 0)
(79.7176 0 0)
(80.0561 0 0)
(80.395 0 0)
(80.7346 0 0)
(81.0747 0 0)
(81.4153 0 0)
(81.7565 0 0)
(82.0983 0 0)
(82.4407 0 0)
(82.7836 0 0)
(83.1272 0 0)
(83.4713 0 0)
(83.8161 0 0)
(84.1613 0 0)
(84.5076 0 0)
(84.8538 0 0)
(85.2016 0 0)
(85.5487 0 0)
(85.8984 0 0)
(86.246 0 0)
(86.5981 0 0)
(86.9456 0 0)
(87.3008 0 0)
(87.6475 0 0)
(88.0068 0 0)
(88.3517 0 0)
(88.7162 0 0)
(89.0582 0 0)
(89.4289 0 0)
(89.7675 0 0)
(90.1446 0 0)
(90.48 0 0)
(90.8626 0 0)
(91.1967 0 0)
(91.5823 0 0)
(91.9185 0 0)
(92.303 0 0)
(92.6461 0 0)
(93.0242 0 0)
(93.38 0 0)
(93.7456 0 0)
(94.1204 0 0)
(94.4675 0 0)
(94.867 0 0)
(95.1907 0 0)
(95.6191 0 0)
(95.9166 0 0)
(96.3748 0 0)
(96.6472 0 0)
(97.1315 0 0)
(97.3858 0 0)
(97.8853 0 0)
(98.1354 0 0)
(98.638 0 0)
(98.8911 0 0)
(99.3963 0 0)
(99.65 0 0)
(100.159 0 0)
(100.414 0 0)
(100.925 0 0)
(101.182 0 0)
(101.696 0 0)
(101.954 0 0)
(102.472 0 0)
(102.732 0 0)
(103.252 0 0)
(103.514 0 0)
(104.037 0 0)
(104.301 0 0)
(104.828 0 0)
(105.093 0 0)
(105.623 0 0)
(105.889 0 0)
(106.423 0 0)
(106.692 0 0)
(107.229 0 0)
(107.5 0 0)
(108.041 0 0)
(108.315 0 0)
(108.856 0 0)
(109.14 0 0)
(109.671 0 0)
(109.978 0 0)
(110.488 0 0)
(110.824 0 0)
(111.309 0 0)
(111.677 0 0)
(112.14 0 0)
(112.532 0 0)
(112.984 0 0)
(113.389 0 0)
(113.838 0 0)
(114.25 0 0)
(114.7 0 0)
(115.119 0 0)
(115.57 0 0)
(115.996 0 0)
(116.448 0 0)
(116.88 0 0)
(117.336 0 0)
(117.771 0 0)
(118.232 0 0)
(118.671 0 0)
(119.136 0 0)
(119.582 0 0)
(120.049 0 0)
(120.502 0 0)
(120.972 0 0)
(121.431 0 0)
(121.906 0 0)
(122.369 0 0)
(122.85 0 0)
(123.319 0 0)
(123.804 0 0)
(124.28 0 0)
(124.77 0 0)
(125.252 0 0)
(125.747 0 0)
(126.236 0 0)
(126.737 0 0)
(127.233 0 0)
(127.74 0 0)
(128.242 0 0)
(128.757 0 0)
(129.265 0 0)
(129.788 0 0)
(130.303 0 0)
(130.833 0 0)
(131.357 0 0)
(131.893 0 0)
(132.428 0 0)
(132.969 0 0)
(133.516 0 0)
(134.062 0 0)
(134.623 0 0)
(135.173 0 0)
(135.748 0 0)
(136.304 0 0)
(136.892 0 0)
(137.456 0 0)
(138.058 0 0)
(138.629 0 0)
(139.246 0 0)
(139.826 0 0)
(140.458 0 0)
(141.048 0 0)
(141.696 0 0)
(142.296 0 0)
(142.96 0 0)
(143.574 0 0)
(144.254 0 0)
(144.884 0 0)
(145.58 0 0)
(146.226 0 0)
(146.941 0 0)
(147.604 0 0)
(148.341 0 0)
(149.021 0 0)
(149.783 0 0)
(150.481 0 0)
(151.271 0 0)
(151.99 0 0)
(152.809 0 0)
(153.552 0 0)
(154.404 0 0)
(155.174 0 0)
(156.061 0 0)
(156.865 0 0)
(157.789 0 0)
(158.633 0 0)
(159.598 0 0)
(160.491 0 0)
(161.498 0 0)
(162.454 0 0)
(163.508 0 0)
(164.541 0 0)
(165.651 0 0)
(166.771 0 0)
(167.948 0 0)
(169.156 0 0)
(170.415 0 0)
(171.717 0 0)
(173.082 0 0)
(174.489 0 0)
(175.979 0 0)
(177.5 0 0)
(179.111 0 0)
(180.74 0 0)
(182.444 0 0)
(184.165 0 0)
(185.911 0 0)
(187.643 0 0)
(189.232 0 0)
(190.788 0 0)
(192.118 0 0)
(193.435 0 0)
(194.488 0 0)
(195.592 0 0)
(196.446 0 0)
(197.424 0 0)
(198.159 0 0)
(199.075 0 0)
(199.75 0 0)
(200.659 0 0)
(201.327 0 0)
(202.283 0 0)
(202.972 0 0)
(203.99 0 0)
(204.709 0 0)
(205.782 0 0)
(206.53 0 0)
(207.641 0 0)
(208.409 0 0)
(209.54 0 0)
(210.315 0 0)
(211.453 0 0)
(212.222 0 0)
(213.358 0 0)
(214.112 0 0)
(215.243 0 0)
(215.979 0 0)
(217.105 0 0)
(217.828 0 0)
(218.946 0 0)
(219.664 0 0)
(220.766 0 0)
(221.494 0 0)
(222.572 0 0)
(223.32 0 0)
(224.366 0 0)
(225.146 0 0)
(226.153 0 0)
(226.968 0 0)
(227.935 0 0)
(228.783 0 0)
(229.716 0 0)
(230.587 0 0)
(231.496 0 0)
(232.376 0 0)
(233.272 0 0)
(234.15 0 0)
(235.04 0 0)
(235.911 0 0)
(236.797 0 0)
(237.66 0 0)
(238.54 0 0)
(239.399 0 0)
(240.268 0 0)
(241.126 0 0)
(241.983 0 0)
(242.841 0 0)
(243.685 0 0)
(244.541 0 0)
(245.374 0 0)
(246.23 0 0)
(247.051 0 0)
(247.907 0 0)
(248.714 0 0)
(249.57 0 0)
(250.364 0 0)
(251.222 0 0)
(252.005 0 0)
(252.863 0 0)
(253.628 0 0)
(254.486 0 0)
(255.239 0 0)
(256.1 0 0)
(256.84 0 0)
(257.7 0 0)
(258.422 0 0)
(259.283 0 0)
(259.991 0 0)
(260.854 0 0)
(261.548 0 0)
(262.41 0 0)
(263.087 0 0)
(263.949 0 0)
(264.606 0 0)
(265.475 0 0)
(266.1 0 0)
(266.992 0 0)
(267.586 0 0)
(268.509 0 0)
(268.97 0 0)
(269.903 0 0)
(270.521 0 0)
(271.863 0 0)
(271.984 0 0)
(270.85 0 0)
(270.86 0 0)
)
;

boundaryField
{
    sideLeft
    {
        type            symmetryPlane;
    }
    sideRight
    {
        type            zeroGradient;
    }
    topbottom
    {
        type            empty;
    }
    frontback
    {
        type            empty;
    }
}


// ************************************************************************* //
