/*--------------------------------*- C++ -*----------------------------------*\
| =========                 |                                                 |
| \\      /  F ield         | OpenFOAM: The Open Source CFD Toolbox           |
|  \\    /   O peration     | Version:  2.4.0                                 |
|   \\  /    A nd           | Web:      www.OpenFOAM.org                      |
|    \\/     M anipulation  |                                                 |
\*---------------------------------------------------------------------------*/
FoamFile
{
    version     2.0;
    format      ascii;
    class       volVectorField;
    location    "0.18";
    object      U.waterMean;
}
// * * * * * * * * * * * * * * * * * * * * * * * * * * * * * * * * * * * * * //

dimensions      [0 1 -1 0 0 0 0];

internalField   nonuniform List<vector> 
1000
(
(-6.11334e-14 0 0)
(-2.61719e-14 0 0)
(-6.05616e-14 0 0)
(-2.06259e-14 0 0)
(-7.31025e-14 0 0)
(-4.8085e-15 0 0)
(-4.7239e-14 0 0)
(-3.46785e-14 0 0)
(-3.95299e-14 0 0)
(-3.40114e-14 0 0)
(-4.26326e-14 0 0)
(-7.29527e-14 0 0)
(-3.03012e-14 0 0)
(-8.58843e-14 0 0)
(-2.56432e-14 0 0)
(-6.77577e-14 0 0)
(-1.71087e-14 0 0)
(-4.78429e-14 0 0)
(5.71934e-15 0 0)
(-7.41326e-14 0 0)
(1.25956e-14 0 0)
(-6.42089e-14 0 0)
(-3.18761e-14 0 0)
(-7.4895e-14 0 0)
(-7.19305e-14 0 0)
(-8.15467e-14 0 0)
(-8.60861e-14 0 0)
(-7.75995e-14 0 0)
(-1.25158e-13 0 0)
(-6.70166e-14 0 0)
(-1.15273e-13 0 0)
(-1.04904e-13 0 0)
(-9.32115e-14 0 0)
(-1.19979e-13 0 0)
(-7.00325e-14 0 0)
(-1.4476e-13 0 0)
(-4.18164e-14 0 0)
(-1.21699e-13 0 0)
(-6.55284e-14 0 0)
(-1.18475e-13 0 0)
(-7.8022e-14 0 0)
(-1.14034e-13 0 0)
(-9.97761e-14 0 0)
(-9.53822e-14 0 0)
(-8.23995e-14 0 0)
(-8.45112e-14 0 0)
(-9.14271e-14 0 0)
(-8.10019e-14 0 0)
(-9.64955e-14 0 0)
(-8.8747e-14 0 0)
(-9.39611e-14 0 0)
(-7.05532e-14 0 0)
(-6.48842e-14 0 0)
(-4.93592e-14 0 0)
(-3.21992e-14 0 0)
(-2.48455e-14 0 0)
(-2.04557e-14 0 0)
(-1.77242e-14 0 0)
(-3.23611e-14 0 0)
(-1.1669e-14 0 0)
(-4.39861e-14 0 0)
(2.7758e-14 0 0)
(-7.89474e-15 0 0)
(-8.59342e-15 0 0)
(3.31348e-14 0 0)
(1.59913e-14 0 0)
(3.97191e-14 0 0)
(3.25981e-14 0 0)
(1.50242e-14 0 0)
(2.72135e-14 0 0)
(3.72271e-15 0 0)
(1.24856e-14 0 0)
(-1.32749e-14 0 0)
(1.89791e-14 0 0)
(1.0662e-14 0 0)
(-1.47213e-15 0 0)
(2.23106e-14 0 0)
(2.57796e-15 0 0)
(-2.16311e-15 0 0)
(1.21778e-14 0 0)
(-4.40927e-15 0 0)
(2.04793e-14 0 0)
(-3.85646e-15 0 0)
(4.49178e-14 0 0)
(-2.15053e-14 0 0)
(3.98256e-14 0 0)
(-1.6504e-14 0 0)
(2.04672e-14 0 0)
(-5.1277e-15 0 0)
(-7.87496e-15 0 0)
(1.73844e-14 0 0)
(5.89356e-15 0 0)
(-4.00652e-15 0 0)
(6.02764e-15 0 0)
(-2.10358e-14 0 0)
(4.55089e-15 0 0)
(-5.60848e-14 0 0)
(2.08853e-14 0 0)
(-4.65599e-14 0 0)
(-2.3381e-14 0 0)
(-4.44758e-14 0 0)
(-1.76059e-14 0 0)
(-3.77574e-14 0 0)
(-3.78365e-14 0 0)
(-5.6571e-14 0 0)
(-5.50037e-14 0 0)
(-3.43393e-14 0 0)
(-4.47169e-14 0 0)
(-7.59528e-14 0 0)
(-4.73382e-14 0 0)
(-9.31912e-14 0 0)
(-4.46145e-14 0 0)
(-7.47963e-14 0 0)
(-6.82991e-14 0 0)
(-5.73249e-14 0 0)
(-4.808e-14 0 0)
(-1.26713e-14 0 0)
(-5.87385e-15 0 0)
(2.45886e-14 0 0)
(-2.24883e-14 0 0)
(3.95059e-14 0 0)
(1.43256e-14 0 0)
(6.7521e-14 0 0)
(2.81852e-14 0 0)
(6.74697e-14 0 0)
(4.96231e-15 0 0)
(6.5563e-14 0 0)
(1.80916e-14 0 0)
(7.5917e-14 0 0)
(1.31127e-15 0 0)
(7.25812e-14 0 0)
(-5.8653e-15 0 0)
(3.68651e-14 0 0)
(1.95007e-14 0 0)
(5.13601e-14 0 0)
(2.62509e-14 0 0)
(3.8393e-14 0 0)
(5.04209e-14 0 0)
(5.49682e-14 0 0)
(6.4616e-14 0 0)
(4.33827e-14 0 0)
(6.23459e-14 0 0)
(1.79772e-14 0 0)
(4.87073e-14 0 0)
(-1.44034e-15 0 0)
(5.28127e-14 0 0)
(2.37519e-14 0 0)
(4.26681e-14 0 0)
(3.84482e-14 0 0)
(4.57353e-14 0 0)
(2.91835e-14 0 0)
(2.37204e-14 0 0)
(1.40688e-14 0 0)
(3.73351e-14 0 0)
(3.62495e-14 0 0)
(7.18831e-14 0 0)
(2.95548e-14 0 0)
(5.94722e-14 0 0)
(1.23952e-14 0 0)
(4.61495e-14 0 0)
(7.59543e-15 0 0)
(7.60355e-14 0 0)
(2.98945e-14 0 0)
(6.41617e-14 0 0)
(5.01331e-14 0 0)
(8.60266e-14 0 0)
(1.60666e-14 0 0)
(8.07053e-14 0 0)
(1.74836e-14 0 0)
(4.07299e-14 0 0)
(1.81228e-14 0 0)
(3.83731e-14 0 0)
(1.56835e-14 0 0)
(4.99943e-14 0 0)
(1.30191e-14 0 0)
(5.67285e-14 0 0)
(-6.14572e-15 0 0)
(6.49628e-14 0 0)
(6.54915e-15 0 0)
(9.22132e-15 0 0)
(1.85293e-14 0 0)
(1.35596e-14 0 0)
(4.1902e-14 0 0)
(-9.53647e-15 0 0)
(6.14613e-14 0 0)
(-6.9746e-15 0 0)
(7.33588e-14 0 0)
(-2.48482e-14 0 0)
(9.39052e-14 0 0)
(1.15432e-14 0 0)
(1.12549e-13 0 0)
(2.15262e-14 0 0)
(1.11977e-13 0 0)
(1.8214e-14 0 0)
(8.65754e-14 0 0)
(2.83351e-14 0 0)
(6.62581e-14 0 0)
(4.20958e-14 0 0)
(7.78161e-14 0 0)
(1.65835e-14 0 0)
(7.88935e-14 0 0)
(-9.3153e-15 0 0)
(1.00435e-13 0 0)
(2.3989e-14 0 0)
(5.21419e-14 0 0)
(4.58657e-14 0 0)
(8.4582e-14 0 0)
(6.79595e-14 0 0)
(6.26029e-14 0 0)
(8.28058e-14 0 0)
(8.009e-14 0 0)
(1.1405e-13 0 0)
(7.58429e-14 0 0)
(1.38938e-13 0 0)
(8.65524e-14 0 0)
(1.5718e-13 0 0)
(1.19257e-13 0 0)
(1.35714e-13 0 0)
(1.32497e-13 0 0)
(1.25817e-13 0 0)
(1.4336e-13 0 0)
(1.2219e-13 0 0)
(1.56284e-13 0 0)
(1.4077e-13 0 0)
(1.35134e-13 0 0)
(1.6556e-13 0 0)
(1.67889e-13 0 0)
(1.47892e-13 0 0)
(1.61206e-13 0 0)
(1.51914e-13 0 0)
(1.19604e-13 0 0)
(1.35161e-13 0 0)
(8.57471e-14 0 0)
(1.46245e-13 0 0)
(7.09956e-14 0 0)
(1.67636e-13 0 0)
(8.45433e-14 0 0)
(1.41642e-13 0 0)
(7.64744e-14 0 0)
(9.2639e-14 0 0)
(1.01679e-13 0 0)
(1.13754e-13 0 0)
(7.48287e-14 0 0)
(1.50248e-13 0 0)
(1.21539e-13 0 0)
(1.26121e-13 0 0)
(1.46573e-13 0 0)
(1.49944e-13 0 0)
(1.58799e-13 0 0)
(1.63342e-13 0 0)
(1.5373e-13 0 0)
(1.80703e-13 0 0)
(1.75836e-13 0 0)
(1.45275e-13 0 0)
(1.73972e-13 0 0)
(1.30886e-13 0 0)
(1.7773e-13 0 0)
(1.29915e-13 0 0)
(1.72894e-13 0 0)
(1.27922e-13 0 0)
(1.9022e-13 0 0)
(1.55242e-13 0 0)
(1.66484e-13 0 0)
(1.5174e-13 0 0)
(1.29923e-13 0 0)
(1.52206e-13 0 0)
(7.985e-14 0 0)
(1.80102e-13 0 0)
(9.52252e-14 0 0)
(2.00301e-13 0 0)
(1.19245e-13 0 0)
(2.01059e-13 0 0)
(1.26627e-13 0 0)
(1.58443e-13 0 0)
(1.45658e-13 0 0)
(1.77852e-13 0 0)
(1.17891e-13 0 0)
(1.86019e-13 0 0)
(1.29793e-13 0 0)
(1.69598e-13 0 0)
(1.64009e-13 0 0)
(1.83277e-13 0 0)
(1.83324e-13 0 0)
(1.23027e-13 0 0)
(2.01865e-13 0 0)
(1.56541e-13 0 0)
(1.59738e-13 0 0)
(1.7777e-13 0 0)
(1.8092e-13 0 0)
(1.59628e-13 0 0)
(1.85041e-13 0 0)
(1.73688e-13 0 0)
(2.0162e-13 0 0)
(1.40846e-13 0 0)
(2.26094e-13 0 0)
(1.71565e-13 0 0)
(1.96509e-13 0 0)
(1.89107e-13 0 0)
(2.18357e-13 0 0)
(1.62987e-13 0 0)
(2.35402e-13 0 0)
(1.6892e-13 0 0)
(2.02824e-13 0 0)
(1.72816e-13 0 0)
(1.6545e-13 0 0)
(1.90919e-13 0 0)
(1.88937e-13 0 0)
(1.69097e-13 0 0)
(1.69172e-13 0 0)
(1.27022e-13 0 0)
(1.81642e-13 0 0)
(1.36247e-13 0 0)
(1.55632e-13 0 0)
(1.54109e-13 0 0)
(1.84078e-13 0 0)
(1.74091e-13 0 0)
(2.00657e-13 0 0)
(1.7779e-13 0 0)
(1.6948e-13 0 0)
(2.09085e-13 0 0)
(1.94373e-13 0 0)
(1.88302e-13 0 0)
(2.07383e-13 0 0)
(1.84824e-13 0 0)
(2.00053e-13 0 0)
(1.67112e-13 0 0)
(1.47331e-13 0 0)
(1.69717e-13 0 0)
(1.43719e-13 0 0)
(1.56205e-13 0 0)
(1.75796e-13 0 0)
(1.81386e-13 0 0)
(1.38888e-13 0 0)
(1.96389e-13 0 0)
(1.13822e-13 0 0)
(1.88518e-13 0 0)
(1.2354e-13 0 0)
(1.37695e-13 0 0)
(1.31087e-13 0 0)
(1.24795e-13 0 0)
(1.41149e-13 0 0)
(1.15053e-13 0 0)
(1.33345e-13 0 0)
(8.13418e-14 0 0)
(1.35295e-13 0 0)
(6.4893e-14 0 0)
(1.60996e-13 0 0)
(1.02871e-13 0 0)
(1.4435e-13 0 0)
(1.24933e-13 0 0)
(1.53331e-13 0 0)
(1.72078e-13 0 0)
(2.28795e-13 0 0)
(2.28061e-13 0 0)
(3.74949e-13 0 0)
(4.28967e-13 0 0)
(5.98561e-13 0 0)
(8.31157e-13 0 0)
(1.18665e-12 0 0)
(1.67975e-12 0 0)
(2.41602e-12 0 0)
(3.46781e-12 0 0)
(5.03139e-12 0 0)
(7.33054e-12 0 0)
(1.06394e-11 0 0)
(1.54687e-11 0 0)
(2.23252e-11 0 0)
(3.23637e-11 0 0)
(4.66385e-11 0 0)
(6.7187e-11 0 0)
(9.64554e-11 0 0)
(1.38217e-10 0 0)
(1.97422e-10 0 0)
(2.81328e-10 0 0)
(3.99742e-10 0 0)
(5.66485e-10 0 0)
(8.00486e-10 0 0)
(1.12807e-09 0 0)
(1.58512e-09 0 0)
(2.22122e-09 0 0)
(3.10361e-09 0 0)
(4.3243e-09 0 0)
(6.00776e-09 0 0)
(8.32268e-09 0 0)
(1.14963e-08 0 0)
(1.58339e-08 0 0)
(2.17448e-08 0 0)
(2.97748e-08 0 0)
(4.06504e-08 0 0)
(5.53348e-08 0 0)
(7.51009e-08 0 0)
(1.01625e-07 0 0)
(1.37106e-07 0 0)
(1.8442e-07 0 0)
(2.47317e-07 0 0)
(3.30663e-07 0 0)
(4.40757e-07 0 0)
(5.85719e-07 0 0)
(7.7598e-07 0 0)
(1.02489e-06 0 0)
(1.34949e-06 0 0)
(1.77139e-06 0 0)
(2.318e-06 0 0)
(3.02383e-06 0 0)
(3.93228e-06 0 0)
(5.09762e-06 0 0)
(6.58755e-06 0 0)
(8.48608e-06 0 0)
(1.08972e-05 0 0)
(1.39489e-05 0 0)
(1.77983e-05 0 0)
(2.26375e-05 0 0)
(2.87e-05 0 0)
(3.62693e-05 0 0)
(4.56871e-05 0 0)
(5.73644e-05 0 0)
(7.17929e-05 0 0)
(8.95587e-05 0 0)
(0.000111357 0 0)
(0.00013801 0 0)
(0.000170483 0 0)
(0.000209908 0 0)
(0.000257603 0 0)
(0.000315099 0 0)
(0.000384163 0 0)
(0.000466827 0 0)
(0.000565415 0 0)
(0.000682578 0 0)
(0.000821316 0 0)
(0.000985016 0 0)
(0.00117748 0 0)
(0.00140296 0 0)
(0.00166618 0 0)
(0.00197236 0 0)
(0.00232727 0 0)
(0.00273721 0 0)
(0.00320906 0 0)
(0.00375029 0 0)
(0.00436895 0 0)
(0.00507372 0 0)
(0.00587384 0 0)
(0.00677918 0 0)
(0.00780019 0 0)
(0.00894786 0 0)
(0.0102337 0 0)
(0.0116699 0 0)
(0.0132689 0 0)
(0.0150436 0 0)
(0.0170075 0 0)
(0.0191742 0 0)
(0.0215577 0 0)
(0.0241723 0 0)
(0.0270323 0 0)
(0.0301523 0 0)
(0.0335469 0 0)
(0.0372306 0 0)
(0.0412181 0 0)
(0.0455236 0 0)
(0.0501616 0 0)
(0.0551461 0 0)
(0.0604909 0 0)
(0.0662096 0 0)
(0.0723153 0 0)
(0.0788209 0 0)
(0.0857389 0 0)
(0.0930812 0 0)
(0.100859 0 0)
(0.109085 0 0)
(0.117768 0 0)
(0.126919 0 0)
(0.136548 0 0)
(0.146663 0 0)
(0.157274 0 0)
(0.168389 0 0)
(0.180015 0 0)
(0.192161 0 0)
(0.204832 0 0)
(0.218035 0 0)
(0.231776 0 0)
(0.246061 0 0)
(0.260895 0 0)
(0.276283 0 0)
(0.292228 0 0)
(0.308736 0 0)
(0.325809 0 0)
(0.343452 0 0)
(0.361668 0 0)
(0.380459 0 0)
(0.399827 0 0)
(0.419777 0 0)
(0.440308 0 0)
(0.461425 0 0)
(0.483127 0 0)
(0.505418 0 0)
(0.528298 0 0)
(0.551769 0 0)
(0.575831 0 0)
(0.600487 0 0)
(0.625736 0 0)
(0.65158 0 0)
(0.678019 0 0)
(0.705055 0 0)
(0.732687 0 0)
(0.760917 0 0)
(0.789745 0 0)
(0.819171 0 0)
(0.849196 0 0)
(0.87982 0 0)
(0.911043 0 0)
(0.942867 0 0)
(0.975291 0 0)
(1.00832 0 0)
(1.04194 0 0)
(1.07617 0 0)
(1.111 0 0)
(1.14643 0 0)
(1.18246 0 0)
(1.21909 0 0)
(1.25633 0 0)
(1.29417 0 0)
(1.33262 0 0)
(1.37166 0 0)
(1.41132 0 0)
(1.45157 0 0)
(1.49244 0 0)
(1.5339 0 0)
(1.57598 0 0)
(1.61866 0 0)
(1.66194 0 0)
(1.70584 0 0)
(1.75034 0 0)
(1.79545 0 0)
(1.84116 0 0)
(1.88749 0 0)
(1.93443 0 0)
(1.98198 0 0)
(2.03013 0 0)
(2.0789 0 0)
(2.12828 0 0)
(2.17828 0 0)
(2.22888 0 0)
(2.2801 0 0)
(2.33194 0 0)
(2.38439 0 0)
(2.43745 0 0)
(2.49114 0 0)
(2.54544 0 0)
(2.60035 0 0)
(2.65589 0 0)
(2.71205 0 0)
(2.76882 0 0)
(2.82622 0 0)
(2.88424 0 0)
(2.94288 0 0)
(3.00215 0 0)
(3.06204 0 0)
(3.12255 0 0)
(3.18369 0 0)
(3.24546 0 0)
(3.30785 0 0)
(3.37088 0 0)
(3.43453 0 0)
(3.49882 0 0)
(3.56373 0 0)
(3.62928 0 0)
(3.69546 0 0)
(3.76227 0 0)
(3.82972 0 0)
(3.89781 0 0)
(3.96653 0 0)
(4.03589 0 0)
(4.10589 0 0)
(4.17654 0 0)
(4.24782 0 0)
(4.31974 0 0)
(4.39231 0 0)
(4.46552 0 0)
(4.53937 0 0)
(4.61388 0 0)
(4.68903 0 0)
(4.76483 0 0)
(4.84128 0 0)
(4.91837 0 0)
(4.99613 0 0)
(5.07453 0 0)
(5.15359 0 0)
(5.2333 0 0)
(5.31367 0 0)
(5.3947 0 0)
(5.47638 0 0)
(5.55873 0 0)
(5.64174 0 0)
(5.72541 0 0)
(5.80974 0 0)
(5.89474 0 0)
(5.9804 0 0)
(6.06673 0 0)
(6.15373 0 0)
(6.2414 0 0)
(6.32974 0 0)
(6.41875 0 0)
(6.50844 0 0)
(6.5988 0 0)
(6.68984 0 0)
(6.78156 0 0)
(6.87395 0 0)
(6.96703 0 0)
(7.06078 0 0)
(7.15522 0 0)
(7.25035 0 0)
(7.34616 0 0)
(7.44266 0 0)
(7.53985 0 0)
(7.63772 0 0)
(7.7363 0 0)
(7.83556 0 0)
(7.93552 0 0)
(8.03617 0 0)
(8.13753 0 0)
(8.23958 0 0)
(8.34234 0 0)
(8.44579 0 0)
(8.54995 0 0)
(8.65482 0 0)
(8.7604 0 0)
(8.86668 0 0)
(8.97368 0 0)
(9.08139 0 0)
(9.18981 0 0)
(9.29895 0 0)
(9.40881 0 0)
(9.51939 0 0)
(9.63069 0 0)
(9.74271 0 0)
(9.85546 0 0)
(9.96893 0 0)
(10.0831 0 0)
(10.1981 0 0)
(10.3137 0 0)
(10.4301 0 0)
(10.5473 0 0)
(10.6651 0 0)
(10.7838 0 0)
(10.9031 0 0)
(11.0232 0 0)
(11.1441 0 0)
(11.2657 0 0)
(11.388 0 0)
(11.5111 0 0)
(11.6349 0 0)
(11.7596 0 0)
(11.8849 0 0)
(12.011 0 0)
(12.1379 0 0)
(12.2656 0 0)
(12.394 0 0)
(12.5232 0 0)
(12.6532 0 0)
(12.7839 0 0)
(12.9154 0 0)
(13.0477 0 0)
(13.1807 0 0)
(13.3146 0 0)
(13.4492 0 0)
(13.5847 0 0)
(13.7209 0 0)
(13.8579 0 0)
(13.9957 0 0)
(14.1343 0 0)
(14.2736 0 0)
(14.4138 0 0)
(14.5548 0 0)
(14.6966 0 0)
(14.8393 0 0)
(14.9827 0 0)
(15.1269 0 0)
(15.272 0 0)
(15.4179 0 0)
(15.5646 0 0)
(15.7121 0 0)
(15.8604 0 0)
(16.0096 0 0)
(16.1596 0 0)
(16.3105 0 0)
(16.4622 0 0)
(16.6147 0 0)
(16.7681 0 0)
(16.9223 0 0)
(17.0774 0 0)
(17.2333 0 0)
(17.3901 0 0)
(17.5478 0 0)
(17.7063 0 0)
(17.8657 0 0)
(18.0259 0 0)
(18.187 0 0)
(18.349 0 0)
(18.5119 0 0)
(18.6757 0 0)
(18.8403 0 0)
(19.0058 0 0)
(19.1723 0 0)
(19.3396 0 0)
(19.5078 0 0)
(19.6769 0 0)
(19.8469 0 0)
(20.0179 0 0)
(20.1897 0 0)
(20.3625 0 0)
(20.5361 0 0)
(20.7107 0 0)
(20.8863 0 0)
(21.0627 0 0)
(21.2401 0 0)
(21.4185 0 0)
(21.5978 0 0)
(21.778 0 0)
(21.9592 0 0)
(22.1413 0 0)
(22.3244 0 0)
(22.5084 0 0)
(22.6935 0 0)
(22.8795 0 0)
(23.0664 0 0)
(23.2544 0 0)
(23.4433 0 0)
(23.6332 0 0)
(23.8241 0 0)
(24.0161 0 0)
(24.209 0 0)
(24.4029 0 0)
(24.5978 0 0)
(24.7938 0 0)
(24.9907 0 0)
(25.1888 0 0)
(25.3877 0 0)
(25.5879 0 0)
(25.7888 0 0)
(25.9912 0 0)
(26.1941 0 0)
(26.3988 0 0)
(26.6036 0 0)
(26.8105 0 0)
(27.0174 0 0)
(27.2266 0 0)
(27.4355 0 0)
(27.647 0 0)
(27.8579 0 0)
(28.0718 0 0)
(28.2848 0 0)
(28.501 0 0)
(28.7162 0 0)
(28.9345 0 0)
(29.1521 0 0)
(29.3725 0 0)
(29.5927 0 0)
(29.815 0 0)
(30.038 0 0)
(30.262 0 0)
(30.488 0 0)
(30.7137 0 0)
(30.9428 0 0)
(31.17 0 0)
(31.4023 0 0)
(31.6311 0 0)
(31.8667 0 0)
(32.0971 0 0)
(32.3359 0 0)
(32.5679 0 0)
(32.8101 0 0)
(33.0437 0 0)
(33.2893 0 0)
(33.5246 0 0)
(33.7736 0 0)
(34.0105 0 0)
(34.263 0 0)
(34.5016 0 0)
(34.7576 0 0)
(34.998 0 0)
(35.2575 0 0)
(35.4996 0 0)
(35.7628 0 0)
(36.0066 0 0)
(36.2734 0 0)
(36.5191 0 0)
(36.7896 0 0)
(37.0371 0 0)
(37.3114 0 0)
(37.5607 0 0)
(37.8388 0 0)
(38.09 0 0)
(38.372 0 0)
(38.6252 0 0)
(38.9109 0 0)
(39.1663 0 0)
(39.4557 0 0)
(39.7135 0 0)
(40.0065 0 0)
(40.2669 0 0)
(40.5633 0 0)
(40.8264 0 0)
(41.1264 0 0)
(41.3923 0 0)
(41.6958 0 0)
(41.9646 0 0)
(42.2716 0 0)
(42.5434 0 0)
(42.8541 0 0)
(43.1288 0 0)
(43.4432 0 0)
(43.721 0 0)
(44.0391 0 0)
(44.3201 0 0)
(44.6421 0 0)
(44.9262 0 0)
(45.2521 0 0)
(45.5394 0 0)
(45.8694 0 0)
(46.1601 0 0)
(46.4941 0 0)
(46.7881 0 0)
(47.1263 0 0)
(47.4239 0 0)
(47.7663 0 0)
(48.0674 0 0)
(48.4142 0 0)
(48.719 0 0)
(49.0702 0 0)
(49.3787 0 0)
(49.7345 0 0)
(50.0469 0 0)
(50.4073 0 0)
(50.7236 0 0)
(51.0888 0 0)
(51.4092 0 0)
(51.7793 0 0)
(52.1038 0 0)
(52.479 0 0)
(52.8078 0 0)
(53.1882 0 0)
(53.5214 0 0)
(53.9071 0 0)
(54.2449 0 0)
(54.6361 0 0)
(54.9785 0 0)
(55.3754 0 0)
(55.7227 0 0)
(56.1253 0 0)
(56.4778 0 0)
(56.8864 0 0)
(57.2441 0 0)
(57.6589 0 0)
(58.022 0 0)
(58.4432 0 0)
(58.8121 0 0)
(59.2399 0 0)
(59.6147 0 0)
(60.0494 0 0)
(60.4304 0 0)
(60.8723 0 0)
(61.2597 0 0)
(61.7091 0 0)
(62.1033 0 0)
(62.5606 0 0)
(62.9619 0 0)
(63.4273 0 0)
(63.8362 0 0)
(64.3102 0 0)
(64.727 0 0)
(65.2102 0 0)
(65.6353 0 0)
(66.1281 0 0)
(66.5623 0 0)
(67.0652 0 0)
(67.509 0 0)
(68.0228 0 0)
(68.477 0 0)
(69.0023 0 0)
(69.4678 0 0)
(70.0055 0 0)
(70.4833 0 0)
(71.0345 0 0)
(71.5257 0 0)
(72.0915 0 0)
(72.5973 0 0)
(73.1793 0 0)
(73.7012 0 0)
(74.3008 0 0)
(74.8403 0 0)
(75.4593 0 0)
(76.0178 0 0)
(76.6575 0 0)
(77.2361 0 0)
(77.8974 0 0)
(78.4964 0 0)
(79.1787 0 0)
(79.7963 0 0)
(80.496 0 0)
(81.1259 0 0)
(81.8329 0 0)
(82.459 0 0)
(83.1543 0 0)
(83.7381 0 0)
(84.3796 0 0)
(84.9094 0 0)
(85.5036 0 0)
(85.996 0 0)
(86.5645 0 0)
(87.0411 0 0)
(87.6041 0 0)
(88.0802 0 0)
(88.6494 0 0)
(89.1328 0 0)
(89.7123 0 0)
(90.2051 0 0)
(90.7944 0 0)
(91.2949 0 0)
(91.8917 0 0)
(92.3972 0 0)
(92.9992 0 0)
(93.5074 0 0)
(94.1128 0 0)
(94.6222 0 0)
(95.2299 0 0)
(95.7398 0 0)
(96.3494 0 0)
(96.8598 0 0)
(97.4711 0 0)
(97.9819 0 0)
(98.5952 0 0)
(99.1064 0 0)
(99.7218 0 0)
(100.233 0 0)
(100.851 0 0)
(101.363 0 0)
(101.982 0 0)
(102.494 0 0)
(103.115 0 0)
(103.627 0 0)
(104.25 0 0)
(104.762 0 0)
(105.385 0 0)
(105.896 0 0)
(106.52 0 0)
(107.031 0 0)
(107.654 0 0)
(108.165 0 0)
(108.788 0 0)
(109.297 0 0)
(109.92 0 0)
(110.428 0 0)
(111.049 0 0)
(111.556 0 0)
(112.176 0 0)
(112.681 0 0)
(113.3 0 0)
(113.802 0 0)
(114.42 0 0)
(114.919 0 0)
(115.534 0 0)
(116.031 0 0)
(116.643 0 0)
(117.135 0 0)
(117.744 0 0)
(118.231 0 0)
(118.834 0 0)
(119.314 0 0)
(119.91 0 0)
(120.381 0 0)
(120.968 0 0)
(121.428 0 0)
(122.004 0 0)
(122.451 0 0)
(123.012 0 0)
(123.442 0 0)
(123.987 0 0)
(124.398 0 0)
(124.924 0 0)
(125.314 0 0)
(125.822 0 0)
(126.194 0 0)
(126.681 0 0)
(127.021 0 0)
(127.476 0 0)
(127.762 0 0)
(128.177 0 0)
(128.392 0 0)
(128.763 0 0)
(128.894 0 0)
(129.211 0 0)
(129.241 0 0)
(129.487 0 0)
(129.381 0 0)
(129.529 0 0)
(129.226 0 0)
(129.247 0 0)
(128.717 0 0)
(128.506 0 0)
(127.628 0 0)
(128.362 0 0)
)
;

boundaryField
{
    sideLeft
    {
        type            symmetryPlane;
    }
    sideRight
    {
        type            calculated;
        value           uniform (128.362 0 0);
    }
    topbottom
    {
        type            empty;
    }
    frontback
    {
        type            empty;
    }
}


// ************************************************************************* //
