/*--------------------------------*- C++ -*----------------------------------*\
| =========                 |                                                 |
| \\      /  F ield         | OpenFOAM: The Open Source CFD Toolbox           |
|  \\    /   O peration     | Version:  2.4.0                                 |
|   \\  /    A nd           | Web:      www.OpenFOAM.org                      |
|    \\/     M anipulation  |                                                 |
\*---------------------------------------------------------------------------*/
FoamFile
{
    version     2.0;
    format      ascii;
    class       volVectorField;
    location    "0.18";
    object      Ur;
}
// * * * * * * * * * * * * * * * * * * * * * * * * * * * * * * * * * * * * * //

dimensions      [0 1 -1 0 0 0 0];

internalField   nonuniform List<vector> 
1000
(
(2.13163e-14 0 0)
(3.55271e-14 0 0)
(-4.9738e-14 0 0)
(-2.84217e-14 0 0)
(6.39488e-14 0 0)
(-1.42109e-14 0 0)
(-2.13163e-14 0 0)
(7.10543e-15 0 0)
(-4.26326e-14 0 0)
(-7.10543e-15 0 0)
(9.23706e-14 0 0)
(2.13163e-14 0 0)
(-4.9738e-14 0 0)
(-7.10543e-15 0 0)
(2.57822e-22 0 0)
(-2.13163e-14 0 0)
(-2.84217e-14 0 0)
(2.13163e-14 0 0)
(4.26326e-14 0 0)
(-7.10543e-15 0 0)
(-2.84217e-14 0 0)
(1.42109e-14 0 0)
(-7.10543e-15 0 0)
(5.68434e-14 0 0)
(5.68434e-14 0 0)
(-4.26326e-14 0 0)
(-9.9476e-14 0 0)
(-2.84217e-14 0 0)
(7.10543e-14 0 0)
(3.55271e-14 0 0)
(2.13163e-14 0 0)
(-1.3297e-21 0 0)
(7.10543e-15 0 0)
(-2.84217e-14 0 0)
(-2.84217e-14 0 0)
(6.39488e-14 0 0)
(-7.10543e-15 0 0)
(-7.10543e-14 0 0)
(9.87501e-22 0 0)
(3.55271e-14 0 0)
(7.10543e-15 0 0)
(-5.68434e-14 0 0)
(-2.13163e-14 0 0)
(2.13163e-14 0 0)
(-8.45487e-23 0 0)
(6.39488e-14 0 0)
(2.13163e-14 0 0)
(-4.26326e-14 0 0)
(-3.82635e-22 0 0)
(-3.55271e-14 0 0)
(-7.81597e-14 0 0)
(2.13163e-14 0 0)
(1.42109e-14 0 0)
(1.42109e-14 0 0)
(6.39488e-14 0 0)
(-3.55271e-14 0 0)
(1.42109e-14 0 0)
(2.84217e-14 0 0)
(-7.10543e-15 0 0)
(2.13163e-14 0 0)
(-7.81597e-14 0 0)
(-7.10543e-14 0 0)
(7.10543e-14 0 0)
(4.26326e-14 0 0)
(-3.55271e-14 0 0)
(-7.10543e-15 0 0)
(-1.42109e-14 0 0)
(3.55271e-14 0 0)
(2.84217e-14 0 0)
(-3.55271e-14 0 0)
(2.13163e-14 0 0)
(4.9738e-14 0 0)
(2.84217e-14 0 0)
(-9.23706e-14 0 0)
(-2.84217e-14 0 0)
(4.9738e-14 0 0)
(-2.84217e-14 0 0)
(-2.84217e-14 0 0)
(2.84217e-14 0 0)
(4.9738e-14 0 0)
(3.55271e-14 0 0)
(4.26326e-14 0 0)
(-2.13163e-14 0 0)
(-6.39488e-14 0 0)
(7.10543e-15 0 0)
(6.39488e-14 0 0)
(7.10543e-15 0 0)
(1.9623e-21 0 0)
(2.13163e-14 0 0)
(-2.84217e-14 0 0)
(-8.95268e-22 0 0)
(-4.9738e-14 0 0)
(-2.84217e-14 0 0)
(7.10543e-15 0 0)
(-2.84217e-14 0 0)
(2.13163e-14 0 0)
(7.10543e-15 0 0)
(-1.42109e-14 0 0)
(-3.55271e-14 0 0)
(2.84217e-14 0 0)
(2.13163e-14 0 0)
(-2.13163e-14 0 0)
(1.49663e-21 0 0)
(2.13163e-14 0 0)
(1.42109e-14 0 0)
(-6.39488e-14 0 0)
(3.7846e-22 0 0)
(1.42109e-14 0 0)
(-4.26326e-14 0 0)
(-9.23674e-22 0 0)
(-7.10543e-15 0 0)
(-7.10543e-15 0 0)
(-1.42109e-14 0 0)
(-2.13163e-14 0 0)
(3.55271e-14 0 0)
(1.42109e-14 0 0)
(7.10543e-15 0 0)
(6.39488e-14 0 0)
(-2.13163e-14 0 0)
(-3.55271e-14 0 0)
(7.10543e-15 0 0)
(-1.42109e-14 0 0)
(-1.42109e-14 0 0)
(3.55271e-14 0 0)
(4.26326e-14 0 0)
(-2.84217e-14 0 0)
(-4.9738e-14 0 0)
(-2.13163e-14 0 0)
(1.42109e-14 0 0)
(-7.10543e-15 0 0)
(-2.58137e-21 0 0)
(-1.42109e-14 0 0)
(-2.13163e-14 0 0)
(2.13163e-14 0 0)
(2.84217e-14 0 0)
(1.42109e-14 0 0)
(7.10543e-15 0 0)
(7.10543e-15 0 0)
(-3.55271e-14 0 0)
(-2.13163e-14 0 0)
(-2.84217e-14 0 0)
(-1.42109e-14 0 0)
(4.9738e-14 0 0)
(-2.84217e-14 0 0)
(2.84217e-14 0 0)
(4.26326e-14 0 0)
(-1.42109e-14 0 0)
(6.24919e-23 0 0)
(1.42109e-14 0 0)
(-1.42109e-14 0 0)
(-7.10543e-15 0 0)
(2.84217e-14 0 0)
(-7.10543e-15 0 0)
(7.10543e-15 0 0)
(-2.84217e-14 0 0)
(-4.26326e-14 0 0)
(2.13163e-14 0 0)
(2.13163e-14 0 0)
(1.42109e-14 0 0)
(3.55271e-14 0 0)
(7.10543e-15 0 0)
(4.6588e-21 0 0)
(-4.26326e-14 0 0)
(-3.55271e-14 0 0)
(2.84217e-14 0 0)
(1.42109e-14 0 0)
(7.10543e-15 0 0)
(-3.55271e-14 0 0)
(-2.84217e-14 0 0)
(4.26326e-14 0 0)
(2.12488e-21 0 0)
(-1.42109e-14 0 0)
(5.68434e-14 0 0)
(-4.26326e-14 0 0)
(-4.26326e-14 0 0)
(4.9738e-14 0 0)
(7.10543e-15 0 0)
(2.84217e-14 0 0)
(3.55271e-14 0 0)
(-2.13163e-14 0 0)
(-3.55271e-14 0 0)
(2.13163e-14 0 0)
(7.10543e-15 0 0)
(-4.26326e-14 0 0)
(-1.42109e-14 0 0)
(3.55271e-14 0 0)
(-4.9738e-14 0 0)
(-2.84217e-14 0 0)
(7.10543e-14 0 0)
(4.26326e-14 0 0)
(-5.68434e-14 0 0)
(-1.42109e-14 0 0)
(3.55271e-14 0 0)
(-2.13163e-14 0 0)
(7.10543e-15 0 0)
(3.55271e-14 0 0)
(-3.55271e-14 0 0)
(-3.55271e-14 0 0)
(1.42109e-14 0 0)
(-7.10543e-15 0 0)
(-6.09879e-22 0 0)
(7.10543e-15 0 0)
(3.55271e-14 0 0)
(-1.42109e-14 0 0)
(-5.68434e-14 0 0)
(7.10543e-15 0 0)
(4.9738e-14 0 0)
(3.55271e-14 0 0)
(-3.55271e-14 0 0)
(-8.52651e-14 0 0)
(7.10543e-15 0 0)
(6.39488e-14 0 0)
(3.55271e-14 0 0)
(-2.13163e-14 0 0)
(-2.84217e-14 0 0)
(-5.68434e-14 0 0)
(9.80485e-22 0 0)
(1.52286e-21 0 0)
(-4.26326e-14 0 0)
(2.84217e-14 0 0)
(2.84217e-14 0 0)
(5.68434e-14 0 0)
(-1.42109e-14 0 0)
(-7.10543e-14 0 0)
(-1.42109e-14 0 0)
(4.9738e-14 0 0)
(3.55271e-14 0 0)
(-4.9738e-14 0 0)
(-2.84217e-14 0 0)
(-7.10543e-15 0 0)
(-6.39488e-14 0 0)
(3.55271e-14 0 0)
(4.9738e-14 0 0)
(-2.13163e-14 0 0)
(1.42109e-14 0 0)
(-2.84217e-14 0 0)
(-2.58355e-21 0 0)
(1.42109e-14 0 0)
(1.42109e-14 0 0)
(4.26326e-14 0 0)
(6.16895e-22 0 0)
(4.26326e-14 0 0)
(4.9738e-14 0 0)
(-4.26326e-14 0 0)
(-5.68434e-14 0 0)
(-2.84217e-14 0 0)
(4.9738e-14 0 0)
(-2.13163e-14 0 0)
(-5.68434e-14 0 0)
(2.13163e-14 0 0)
(-1.33271e-21 0 0)
(2.84217e-14 0 0)
(4.26326e-14 0 0)
(6.0069e-22 0 0)
(-2.13163e-14 0 0)
(2.13163e-14 0 0)
(2.13163e-14 0 0)
(-2.13163e-14 0 0)
(-5.68434e-14 0 0)
(3.33011e-22 0 0)
(-1.92404e-21 0 0)
(2.13163e-14 0 0)
(7.81597e-14 0 0)
(2.84217e-14 0 0)
(-1.42109e-14 0 0)
(-4.26326e-14 0 0)
(4.9738e-14 0 0)
(3.55271e-14 0 0)
(-5.68434e-14 0 0)
(-3.55271e-14 0 0)
(-1.42109e-14 0 0)
(7.10542e-15 0 0)
(1.42109e-14 0 0)
(2.84217e-14 0 0)
(7.10543e-15 0 0)
(-9.23706e-14 0 0)
(-4.26326e-14 0 0)
(8.52651e-14 0 0)
(7.10543e-15 0 0)
(-4.9738e-14 0 0)
(1.36964e-21 0 0)
(-7.10543e-15 0 0)
(-2.13163e-14 0 0)
(-7.10543e-15 0 0)
(-2.13163e-14 0 0)
(-1.42109e-14 0 0)
(3.55271e-14 0 0)
(4.26326e-14 0 0)
(-3.55271e-14 0 0)
(-4.26326e-14 0 0)
(4.26326e-14 0 0)
(2.84217e-14 0 0)
(-1.42109e-14 0 0)
(1.43362e-22 0 0)
(1.42109e-14 0 0)
(-7.73623e-23 0 0)
(-1.42109e-14 0 0)
(-7.10543e-15 0 0)
(7.10543e-15 0 0)
(7.10543e-15 0 0)
(-1.42109e-14 0 0)
(-2.84217e-14 0 0)
(-4.26326e-14 0 0)
(6.39488e-14 0 0)
(7.10543e-14 0 0)
(-4.26326e-14 0 0)
(-6.39488e-14 0 0)
(4.9738e-14 0 0)
(9.9476e-14 0 0)
(-2.84217e-14 0 0)
(-2.13163e-14 0 0)
(3.55271e-14 0 0)
(-2.84217e-14 0 0)
(-1.42109e-14 0 0)
(2.13163e-14 0 0)
(7.10543e-15 0 0)
(2.84217e-14 0 0)
(2.84217e-14 0 0)
(-1.42109e-14 0 0)
(-2.84217e-14 0 0)
(2.20227e-22 0 0)
(-2.84217e-14 0 0)
(-7.10543e-15 0 0)
(3.55271e-14 0 0)
(1.9516e-22 0 0)
(-2.09732e-21 0 0)
(-3.55271e-14 0 0)
(-2.84217e-14 0 0)
(2.13163e-14 0 0)
(7.10543e-15 0 0)
(9.91179e-22 0 0)
(-2.84217e-14 0 0)
(-3.55271e-14 0 0)
(2.13163e-14 0 0)
(2.84217e-14 0 0)
(-3.55271e-14 0 0)
(1.68911e-21 0 0)
(-2.84217e-14 0 0)
(-2.84217e-14 0 0)
(-1.42109e-14 0 0)
(1.1728e-21 0 0)
(4.9738e-14 0 0)
(2.37485e-21 0 0)
(-2.84217e-14 0 0)
(7.10543e-15 0 0)
(7.10543e-15 0 0)
(7.97353e-21 0 0)
(3.55271e-14 0 0)
(6.39489e-14 0 0)
(6.39489e-14 0 0)
(7.10546e-15 0 0)
(2.13163e-14 0 0)
(2.84218e-14 0 0)
(3.55272e-14 0 0)
(1.63425e-13 0 0)
(1.77636e-13 0 0)
(2.70007e-13 0 0)
(4.61853e-13 0 0)
(6.25278e-13 0 0)
(8.59758e-13 0 0)
(1.21503e-12 0 0)
(1.72662e-12 0 0)
(2.55796e-12 0 0)
(3.71614e-12 0 0)
(5.15855e-12 0 0)
(7.38255e-12 0 0)
(1.05587e-11 0 0)
(1.47935e-11 0 0)
(2.08616e-11 0 0)
(2.94307e-11 0 0)
(4.1311e-11 0 0)
(5.77672e-11 0 0)
(8.04691e-11 0 0)
(1.11825e-10 0 0)
(1.54842e-10 0 0)
(2.13724e-10 0 0)
(2.94272e-10 0 0)
(4.03816e-10 0 0)
(5.52284e-10 0 0)
(7.53006e-10 0 0)
(1.02336e-09 0 0)
(1.38619e-09 0 0)
(1.87164e-09 0 0)
(2.51895e-09 0 0)
(3.37874e-09 0 0)
(4.51704e-09 0 0)
(6.01875e-09 0 0)
(7.9927e-09 0 0)
(1.0578e-08 0 0)
(1.39519e-08 0 0)
(1.83387e-08 0 0)
(2.40212e-08 0 0)
(3.13552e-08 0 0)
(4.07847e-08 0 0)
(5.28622e-08 0 0)
(6.8272e-08 0 0)
(8.7857e-08 0 0)
(1.12651e-07 0 0)
(1.43916e-07 0 0)
(1.83181e-07 0 0)
(2.32294e-07 0 0)
(2.93474e-07 0 0)
(3.69369e-07 0 0)
(4.63122e-07 0 0)
(5.78443e-07 0 0)
(7.19684e-07 0 0)
(8.91913e-07 0 0)
(1.101e-06 0 0)
(1.35369e-06 0 0)
(1.65769e-06 0 0)
(2.02173e-06 0 0)
(2.4556e-06 0 0)
(2.97024e-06 0 0)
(3.57772e-06 0 0)
(4.29125e-06 0 0)
(5.12511e-06 0 0)
(6.0946e-06 0 0)
(7.21591e-06 0 0)
(8.50589e-06 0 0)
(9.98184e-06 0 0)
(1.16612e-05 0 0)
(1.35612e-05 0 0)
(1.56982e-05 0 0)
(1.80876e-05 0 0)
(2.07429e-05 0 0)
(2.36753e-05 0 0)
(2.68928e-05 0 0)
(3.03999e-05 0 0)
(3.41967e-05 0 0)
(3.82784e-05 0 0)
(4.26344e-05 0 0)
(4.72485e-05 0 0)
(5.20979e-05 0 0)
(5.71533e-05 0 0)
(6.23788e-05 0 0)
(6.77321e-05 0 0)
(7.3165e-05 0 0)
(7.86237e-05 0 0)
(8.40498e-05 0 0)
(8.93812e-05 0 0)
(9.45536e-05 0 0)
(9.95012e-05 0 0)
(0.000104159 0 0)
(0.000108462 0 0)
(0.000112352 0 0)
(0.000115771 0 0)
(0.00011867 0 0)
(0.000121007 0 0)
(0.000122745 0 0)
(0.000123859 0 0)
(0.000124333 0 0)
(0.000124157 0 0)
(0.000123336 0 0)
(0.000121879 0 0)
(0.000119807 0 0)
(0.000117146 0 0)
(0.000113933 0 0)
(0.000110208 0 0)
(0.000106017 0 0)
(0.000101409 0 0)
(9.64383e-05 0 0)
(9.11582e-05 0 0)
(8.56239e-05 0 0)
(7.989e-05 0 0)
(7.40099e-05 0 0)
(6.80352e-05 0 0)
(6.20147e-05 0 0)
(5.5994e-05 0 0)
(5.00153e-05 0 0)
(4.41171e-05 0 0)
(3.83337e-05 0 0)
(3.26954e-05 0 0)
(2.72283e-05 0 0)
(2.19549e-05 0 0)
(1.68932e-05 0 0)
(1.20581e-05 0 0)
(7.46078e-06 0 0)
(3.10915e-06 0 0)
(-9.91716e-07 0 0)
(-4.83942e-06 0 0)
(-8.43396e-06 0 0)
(-1.17774e-05 0 0)
(-1.48738e-05 0 0)
(-1.77286e-05 0 0)
(-2.03486e-05 0 0)
(-2.27418e-05 0 0)
(-2.49171e-05 0 0)
(-2.68839e-05 0 0)
(-2.86523e-05 0 0)
(-3.02327e-05 0 0)
(-3.16356e-05 0 0)
(-3.28719e-05 0 0)
(-3.39522e-05 0 0)
(-3.48871e-05 0 0)
(-3.5687e-05 0 0)
(-3.63619e-05 0 0)
(-3.69218e-05 0 0)
(-3.7376e-05 0 0)
(-3.77336e-05 0 0)
(-3.80032e-05 0 0)
(-3.8193e-05 0 0)
(-3.83106e-05 0 0)
(-3.83633e-05 0 0)
(-3.83578e-05 0 0)
(-3.83005e-05 0 0)
(-3.81973e-05 0 0)
(-3.80534e-05 0 0)
(-3.78739e-05 0 0)
(-3.76634e-05 0 0)
(-3.7426e-05 0 0)
(-3.71655e-05 0 0)
(-3.68853e-05 0 0)
(-3.65886e-05 0 0)
(-3.62781e-05 0 0)
(-3.59563e-05 0 0)
(-3.56255e-05 0 0)
(-3.52876e-05 0 0)
(-3.49443e-05 0 0)
(-3.45973e-05 0 0)
(-3.42479e-05 0 0)
(-3.38973e-05 0 0)
(-3.35464e-05 0 0)
(-3.31962e-05 0 0)
(-3.28474e-05 0 0)
(-3.25007e-05 0 0)
(-3.21567e-05 0 0)
(-3.18158e-05 0 0)
(-3.14783e-05 0 0)
(-3.11447e-05 0 0)
(-3.08151e-05 0 0)
(-3.04899e-05 0 0)
(-3.01691e-05 0 0)
(-2.98528e-05 0 0)
(-2.95413e-05 0 0)
(-2.92344e-05 0 0)
(-2.89324e-05 0 0)
(-2.86351e-05 0 0)
(-2.83427e-05 0 0)
(-2.8055e-05 0 0)
(-2.77721e-05 0 0)
(-2.74939e-05 0 0)
(-2.72204e-05 0 0)
(-2.69516e-05 0 0)
(-2.66872e-05 0 0)
(-2.64274e-05 0 0)
(-2.6172e-05 0 0)
(-2.59209e-05 0 0)
(-2.56741e-05 0 0)
(-2.54315e-05 0 0)
(-2.5193e-05 0 0)
(-2.49585e-05 0 0)
(-2.4728e-05 0 0)
(-2.45013e-05 0 0)
(-2.42784e-05 0 0)
(-2.40591e-05 0 0)
(-2.38435e-05 0 0)
(-2.36313e-05 0 0)
(-2.34225e-05 0 0)
(-2.32171e-05 0 0)
(-2.30148e-05 0 0)
(-2.28157e-05 0 0)
(-2.26196e-05 0 0)
(-2.24264e-05 0 0)
(-2.22361e-05 0 0)
(-2.20485e-05 0 0)
(-2.18636e-05 0 0)
(-2.16812e-05 0 0)
(-2.15012e-05 0 0)
(-2.13236e-05 0 0)
(-2.11483e-05 0 0)
(-2.09751e-05 0 0)
(-2.08041e-05 0 0)
(-2.0635e-05 0 0)
(-2.04678e-05 0 0)
(-2.03025e-05 0 0)
(-2.01389e-05 0 0)
(-1.9977e-05 0 0)
(-1.98167e-05 0 0)
(-1.96579e-05 0 0)
(-1.95005e-05 0 0)
(-1.93446e-05 0 0)
(-1.919e-05 0 0)
(-1.90367e-05 0 0)
(-1.88847e-05 0 0)
(-1.87339e-05 0 0)
(-1.85842e-05 0 0)
(-1.84357e-05 0 0)
(-1.82883e-05 0 0)
(-1.8142e-05 0 0)
(-1.79967e-05 0 0)
(-1.78525e-05 0 0)
(-1.77093e-05 0 0)
(-1.75672e-05 0 0)
(-1.74261e-05 0 0)
(-1.72861e-05 0 0)
(-1.7147e-05 0 0)
(-1.7009e-05 0 0)
(-1.68721e-05 0 0)
(-1.67362e-05 0 0)
(-1.66013e-05 0 0)
(-1.64676e-05 0 0)
(-1.63349e-05 0 0)
(-1.62033e-05 0 0)
(-1.60728e-05 0 0)
(-1.59434e-05 0 0)
(-1.58151e-05 0 0)
(-1.5688e-05 0 0)
(-1.5562e-05 0 0)
(-1.54371e-05 0 0)
(-1.53135e-05 0 0)
(-1.5191e-05 0 0)
(-1.50696e-05 0 0)
(-1.49495e-05 0 0)
(-1.48305e-05 0 0)
(-1.47128e-05 0 0)
(-1.45962e-05 0 0)
(-1.44808e-05 0 0)
(-1.43666e-05 0 0)
(-1.42536e-05 0 0)
(-1.41418e-05 0 0)
(-1.40312e-05 0 0)
(-1.39217e-05 0 0)
(-1.38134e-05 0 0)
(-1.37063e-05 0 0)
(-1.36002e-05 0 0)
(-1.34953e-05 0 0)
(-1.33915e-05 0 0)
(-1.32888e-05 0 0)
(-1.31872e-05 0 0)
(-1.30866e-05 0 0)
(-1.29871e-05 0 0)
(-1.28886e-05 0 0)
(-1.2791e-05 0 0)
(-1.26945e-05 0 0)
(-1.25989e-05 0 0)
(-1.25042e-05 0 0)
(-1.24105e-05 0 0)
(-1.23176e-05 0 0)
(-1.22255e-05 0 0)
(-1.21343e-05 0 0)
(-1.2044e-05 0 0)
(-1.19544e-05 0 0)
(-1.18656e-05 0 0)
(-1.17775e-05 0 0)
(-1.16901e-05 0 0)
(-1.16035e-05 0 0)
(-1.15176e-05 0 0)
(-1.14323e-05 0 0)
(-1.13477e-05 0 0)
(-1.12637e-05 0 0)
(-1.11804e-05 0 0)
(-1.10976e-05 0 0)
(-1.10155e-05 0 0)
(-1.0934e-05 0 0)
(-1.08531e-05 0 0)
(-1.07728e-05 0 0)
(-1.0693e-05 0 0)
(-1.06138e-05 0 0)
(-1.05352e-05 0 0)
(-1.04572e-05 0 0)
(-1.03797e-05 0 0)
(-1.03028e-05 0 0)
(-1.02264e-05 0 0)
(-1.01506e-05 0 0)
(-1.00754e-05 0 0)
(-1.00006e-05 0 0)
(-9.92649e-06 0 0)
(-9.85287e-06 0 0)
(-9.7798e-06 0 0)
(-9.70727e-06 0 0)
(-9.63528e-06 0 0)
(-9.56382e-06 0 0)
(-9.4929e-06 0 0)
(-9.42252e-06 0 0)
(-9.35267e-06 0 0)
(-9.28336e-06 0 0)
(-9.21458e-06 0 0)
(-9.14633e-06 0 0)
(-9.07862e-06 0 0)
(-9.01144e-06 0 0)
(-8.9448e-06 0 0)
(-8.87868e-06 0 0)
(-8.81308e-06 0 0)
(-8.74801e-06 0 0)
(-8.68346e-06 0 0)
(-8.6194e-06 0 0)
(-8.55585e-06 0 0)
(-8.49278e-06 0 0)
(-8.43018e-06 0 0)
(-8.36805e-06 0 0)
(-8.30637e-06 0 0)
(-8.24514e-06 0 0)
(-8.18436e-06 0 0)
(-8.12404e-06 0 0)
(-8.06418e-06 0 0)
(-8.00481e-06 0 0)
(-7.94595e-06 0 0)
(-7.88761e-06 0 0)
(-7.8298e-06 0 0)
(-7.77254e-06 0 0)
(-7.7158e-06 0 0)
(-7.65956e-06 0 0)
(-7.60378e-06 0 0)
(-7.54839e-06 0 0)
(-7.49329e-06 0 0)
(-7.43843e-06 0 0)
(-7.38368e-06 0 0)
(-7.32904e-06 0 0)
(-7.27434e-06 0 0)
(-7.21981e-06 0 0)
(-7.16509e-06 0 0)
(-7.11094e-06 0 0)
(-7.05644e-06 0 0)
(-7.00344e-06 0 0)
(-6.94944e-06 0 0)
(-6.8988e-06 0 0)
(-6.84502e-06 0 0)
(-6.79825e-06 0 0)
(-6.74308e-06 0 0)
(-6.70223e-06 0 0)
(-6.64195e-06 0 0)
(-6.61039e-06 0 0)
(-6.53891e-06 0 0)
(-6.52205e-06 0 0)
(-6.43164e-06 0 0)
(-6.4362e-06 0 0)
(-6.3205e-06 0 0)
(-6.35018e-06 0 0)
(-6.21118e-06 0 0)
(-6.25709e-06 0 0)
(-6.11619e-06 0 0)
(-6.14527e-06 0 0)
(-6.05205e-06 0 0)
(-6.00385e-06 0 0)
(-6.02833e-06 0 0)
(-5.83766e-06 0 0)
(-6.03443e-06 0 0)
(-5.6851e-06 0 0)
(-6.03958e-06 0 0)
(-5.61833e-06 0 0)
(-5.70283e-06 0 0)
(-5.57975e-06 0 0)
(-5.22407e-06 0 0)
(-5.72154e-06 0 0)
(-8.97863e-06 0 0)
(-2.86537e-06 0 0)
(-8.44949e-06 0 0)
(-2.54114e-06 0 0)
(-8.91968e-06 0 0)
(-1.76948e-06 0 0)
(-5.20913e-06 0 0)
(-4.51157e-06 0 0)
(-4.41303e-06 0 0)
(-5.42363e-06 0 0)
(3.4111e-06 0 0)
(-1.39356e-05 0 0)
(-5.07839e-06 0 0)
(-6.98126e-06 0 0)
(-3.26326e-06 0 0)
(-6.79308e-06 0 0)
(-3.69174e-06 0 0)
(-2.75552e-06 0 0)
(-2.13402e-05 0 0)
(7.73245e-06 0 0)
(-2.93091e-06 0 0)
(-5.37585e-06 0 0)
(-1.3405e-05 0 0)
(5.01408e-06 0 0)
(1.03463e-06 0 0)
(-1.19654e-05 0 0)
(-2.54126e-06 0 0)
(-4.56085e-06 0 0)
(-4.83534e-06 0 0)
(-4.97422e-06 0 0)
(-4.5906e-06 0 0)
(-3.4806e-06 0 0)
(-5.44884e-06 0 0)
(-3.97113e-06 0 0)
(-3.81463e-06 0 0)
(-4.69186e-06 0 0)
(-5.1839e-06 0 0)
(-2.98778e-06 0 0)
(-3.79319e-06 0 0)
(-3.38805e-06 0 0)
(-2.83263e-06 0 0)
(-4.9852e-06 0 0)
(-1.09092e-06 0 0)
(-8.47573e-06 0 0)
(5.28201e-06 0 0)
(-1.11875e-05 0 0)
(-1.03614e-05 0 0)
(2.7015e-06 0 0)
(3.99493e-06 0 0)
(-9.37201e-06 0 0)
(-1.3018e-05 0 0)
(3.54643e-06 0 0)
(-9.26048e-07 0 0)
(-5.89036e-06 0 0)
(-6.04782e-06 0 0)
(-2.62954e-06 0 0)
(-2.46599e-06 0 0)
(-4.36989e-06 0 0)
(-3.99291e-06 0 0)
(-2.46513e-06 0 0)
(-3.47762e-06 0 0)
(-2.80087e-06 0 0)
(-5.12032e-06 0 0)
(-2.02439e-06 0 0)
(-4.62273e-06 0 0)
(-2.21369e-06 0 0)
(-1.85839e-06 0 0)
(-3.89566e-06 0 0)
(-1.02901e-06 0 0)
(-4.58192e-06 0 0)
(-3.21052e-06 0 0)
(-3.28738e-06 0 0)
(-5.02355e-06 0 0)
(-1.8599e-06 0 0)
(-3.87744e-06 0 0)
(-2.17245e-06 0 0)
(-2.12622e-06 0 0)
(-3.20664e-06 0 0)
(-2.23668e-06 0 0)
(-3.30001e-06 0 0)
(-3.06701e-06 0 0)
(-2.72663e-06 0 0)
(-3.21421e-06 0 0)
(-2.35259e-06 0 0)
(-3.38456e-06 0 0)
(-2.12002e-06 0 0)
(-3.50653e-06 0 0)
(-2.0949e-06 0 0)
(-2.40473e-06 0 0)
(-2.78061e-06 0 0)
(-8.88293e-07 0 0)
(-3.77097e-06 0 0)
(-3.9366e-07 0 0)
(-4.26404e-06 0 0)
(-4.69786e-07 0 0)
(-4.27149e-06 0 0)
(-8.54335e-07 0 0)
(-3.83665e-06 0 0)
(-2.08567e-06 0 0)
(-2.77542e-06 0 0)
(-3.23464e-06 0 0)
(-1.6725e-06 0 0)
(-3.21853e-06 0 0)
(-1.36078e-06 0 0)
(-2.39816e-06 0 0)
(-1.89017e-06 0 0)
(-1.48685e-06 0 0)
(-2.55308e-06 0 0)
(-1.68169e-06 0 0)
(-2.20461e-06 0 0)
(-3.37395e-06 0 0)
(-6.17232e-07 0 0)
(-4.51984e-06 0 0)
(6.21699e-07 0 0)
(-3.60397e-06 0 0)
(-2.68296e-08 0 0)
(-1.10967e-06 0 0)
(-2.27563e-06 0 0)
(1.53684e-06 0 0)
(-4.28078e-06 0 0)
(2.27295e-06 0 0)
(-4.34583e-06 0 0)
(6.40666e-07 0 0)
(-2.84591e-06 0 0)
(-1.83444e-06 0 0)
(-1.32791e-06 0 0)
(-3.18611e-06 0 0)
(-1.82922e-07 0 0)
(-2.56008e-06 0 0)
(1.07979e-06 0 0)
(-2.80213e-06 0 0)
(2.33121e-06 0 0)
(-6.52293e-06 0 0)
(4.26253e-06 0 0)
(-1.03565e-05 0 0)
(9.67799e-06 0 0)
(-9.05102e-06 0 0)
(1.62441e-05 0 0)
(-4.49722e-06 0 0)
(1.22836e-05 0 0)
(-2.3254e-07 0 0)
(-4.90364e-06 0 0)
(1.26542e-05 0 0)
(-1.34608e-05 0 0)
(3.6104e-05 0 0)
(8.84729e-07 0 0)
(3.72514e-05 0 0)
(1.09287e-05 0 0)
(-2.71756e-06 0 0)
(3.38203e-06 0 0)
(-2.51894e-05 0 0)
(2.86266e-05 0 0)
(1.37397e-05 0 0)
(8.72841e-05 0 0)
(-3.29217e-05 0 0)
(-0.00014364 0 0)
(6.16303e-05 0 0)
(1.67558e-05 0 0)
(-2.41279e-05 0 0)
(2.84068e-06 0 0)
(-3.70166e-05 0 0)
(-5.95109e-05 0 0)
(-5.33441e-05 0 0)
(-3.11132e-05 0 0)
(-2.17603e-06 0 0)
(-8.0536e-05 0 0)
(1.74733e-05 0 0)
(0.00014826 0 0)
(-0.000126232 0 0)
(-3.28235e-05 0 0)
(-2.15387e-05 0 0)
(1.35002e-05 0 0)
(2.82513e-05 0 0)
(-1.99332e-05 0 0)
(3.12244e-05 0 0)
(-6.01491e-06 0 0)
(4.13944e-05 0 0)
(1.26931e-05 0 0)
(2.20415e-05 0 0)
(2.89904e-05 0 0)
(4.12968e-06 0 0)
(2.74347e-05 0 0)
(-1.29239e-06 0 0)
(7.43098e-06 0 0)
(6.75997e-06 0 0)
(-1.78728e-05 0 0)
(2.71136e-05 0 0)
(-4.02616e-05 0 0)
(4.98062e-05 0 0)
(-5.41175e-05 0 0)
(6.67107e-05 0 0)
(-5.24547e-05 0 0)
(7.20114e-05 0 0)
(-3.1652e-05 0 0)
(6.13932e-05 0 0)
(6.29423e-06 0 0)
(3.31223e-05 0 0)
(5.5106e-05 0 0)
(-3.54214e-06 0 0)
(9.96733e-05 0 0)
(-3.40662e-05 0 0)
(0.000117679 0 0)
(-4.3209e-05 0 0)
(9.97532e-05 0 0)
(-2.0216e-05 0 0)
(5.66542e-05 0 0)
(2.6757e-05 0 0)
(1.48329e-05 0 0)
(6.90744e-05 0 0)
(7.21527e-06 0 0)
(8.66645e-05 0 0)
(4.0666e-05 0 0)
(8.15536e-05 0 0)
(7.63786e-05 0 0)
(6.80428e-05 0 0)
(9.17619e-05 0 0)
(8.26848e-05 0 0)
(0.000102505 0 0)
(0.000111407 0 0)
(9.12075e-05 0 0)
(0.000124178 0 0)
(0.000135811 0 0)
(0.000161388 0 0)
(0.00016829 0 0)
(0.000173103 0 0)
(0.000172868 0 0)
(0.000208439 0 0)
(0.000242032 0 0)
(0.000277382 0 0)
(0.000271136 0 0)
(0.000305277 0 0)
(0.000318234 0 0)
(0.000383343 0 0)
(0.000410865 0 0)
(0.000487638 0 0)
(0.000485516 0 0)
(0.000578399 0 0)
(0.00057162 0 0)
(0.000748989 0 0)
(0.000658337 0 0)
(0.00102839 0 0)
(0.000704587 0 0)
(0.00135385 0 0)
(0.000928256 0 0)
(0.00164468 0 0)
(0.00153373 0 0)
(0.00106974 0 0)
(0.00212464 0 0)
(0.00279013 0 0)
(0.00218418 0 0)
(0.00160591 0 0)
(-0.00314791 0 0)
(0.00723377 0 0)
(0.0171975 0 0)
(-0.0120447 0 0)
(-0.00772261 0 0)
)
;

boundaryField
{
    sideLeft
    {
        type            symmetryPlane;
    }
    sideRight
    {
        type            calculated;
        value           uniform (-0.920673 0 0);
    }
    topbottom
    {
        type            empty;
    }
    frontback
    {
        type            empty;
    }
}


// ************************************************************************* //
