/*--------------------------------*- C++ -*----------------------------------*\
| =========                 |                                                 |
| \\      /  F ield         | OpenFOAM: The Open Source CFD Toolbox           |
|  \\    /   O peration     | Version:  2.4.0                                 |
|   \\  /    A nd           | Web:      www.OpenFOAM.org                      |
|    \\/     M anipulation  |                                                 |
\*---------------------------------------------------------------------------*/
FoamFile
{
    version     2.0;
    format      ascii;
    class       volScalarField;
    location    "0.09";
    object      p;
}
// * * * * * * * * * * * * * * * * * * * * * * * * * * * * * * * * * * * * * //

dimensions      [1 -1 -2 0 0 0 0];

internalField   nonuniform List<scalar> 
1000
(
5e+06
5e+06
5e+06
5e+06
5e+06
5e+06
5e+06
5e+06
5e+06
5e+06
5e+06
5e+06
5e+06
5e+06
5e+06
5e+06
5e+06
5e+06
5e+06
5e+06
5e+06
5e+06
5e+06
5e+06
5e+06
5e+06
5e+06
5e+06
5e+06
5e+06
5e+06
5e+06
5e+06
5e+06
5e+06
5e+06
5e+06
5e+06
5e+06
5e+06
5e+06
5e+06
5e+06
5e+06
5e+06
5e+06
5e+06
5e+06
5e+06
5e+06
5e+06
5e+06
5e+06
5e+06
5e+06
5e+06
5e+06
5e+06
5e+06
5e+06
5e+06
5e+06
5e+06
5e+06
5e+06
5e+06
5e+06
5e+06
5e+06
5e+06
5e+06
5e+06
5e+06
5e+06
5e+06
5e+06
5e+06
5e+06
5e+06
5e+06
5e+06
5e+06
5e+06
5e+06
5e+06
5e+06
5e+06
5e+06
5e+06
5e+06
5e+06
5e+06
5e+06
5e+06
5e+06
5e+06
5e+06
5e+06
5e+06
5e+06
5e+06
5e+06
5e+06
5e+06
5e+06
5e+06
5e+06
5e+06
5e+06
5e+06
5e+06
5e+06
5e+06
5e+06
5e+06
5e+06
5e+06
5e+06
5e+06
5e+06
5e+06
5e+06
5e+06
5e+06
5e+06
5e+06
5e+06
5e+06
5e+06
5e+06
5e+06
5e+06
5e+06
5e+06
5e+06
5e+06
5e+06
5e+06
5e+06
5e+06
5e+06
5e+06
5e+06
5e+06
5e+06
5e+06
5e+06
5e+06
5e+06
5e+06
5e+06
5e+06
5e+06
5e+06
5e+06
5e+06
5e+06
5e+06
5e+06
5e+06
5e+06
5e+06
5e+06
5e+06
5e+06
5e+06
5e+06
5e+06
5e+06
5e+06
5e+06
5e+06
5e+06
5e+06
5e+06
5e+06
5e+06
5e+06
5e+06
5e+06
5e+06
5e+06
5e+06
5e+06
5e+06
5e+06
5e+06
5e+06
5e+06
5e+06
5e+06
5e+06
5e+06
5e+06
5e+06
5e+06
5e+06
5e+06
5e+06
5e+06
5e+06
5e+06
5e+06
5e+06
5e+06
5e+06
5e+06
5e+06
5e+06
5e+06
5e+06
5e+06
5e+06
5e+06
5e+06
5e+06
5e+06
5e+06
5e+06
5e+06
5e+06
5e+06
5e+06
5e+06
5e+06
5e+06
5e+06
5e+06
5e+06
5e+06
5e+06
5e+06
5e+06
5e+06
5e+06
5e+06
5e+06
5e+06
5e+06
5e+06
5e+06
5e+06
5e+06
5e+06
5e+06
5e+06
5e+06
5e+06
5e+06
5e+06
5e+06
5e+06
5e+06
5e+06
5e+06
5e+06
5e+06
5e+06
5e+06
5e+06
5e+06
5e+06
5e+06
5e+06
5e+06
5e+06
5e+06
5e+06
5e+06
5e+06
5e+06
5e+06
5e+06
5e+06
5e+06
5e+06
5e+06
5e+06
5e+06
5e+06
5e+06
5e+06
5e+06
5e+06
5e+06
5e+06
5e+06
5e+06
5e+06
5e+06
5e+06
5e+06
5e+06
5e+06
5e+06
5e+06
5e+06
5e+06
5e+06
5e+06
5e+06
5e+06
5e+06
5e+06
5e+06
5e+06
5e+06
5e+06
5e+06
5e+06
5e+06
5e+06
5e+06
5e+06
5e+06
5e+06
5e+06
5e+06
5e+06
5e+06
5e+06
5e+06
5e+06
5e+06
5e+06
5e+06
5e+06
5e+06
5e+06
5e+06
5e+06
5e+06
5e+06
5e+06
5e+06
5e+06
5e+06
5e+06
5e+06
5e+06
5e+06
5e+06
5e+06
5e+06
5e+06
5e+06
5e+06
5e+06
5e+06
5e+06
5e+06
5e+06
5e+06
5e+06
5e+06
5e+06
5e+06
5e+06
5e+06
5e+06
5e+06
5e+06
5e+06
5e+06
5e+06
5e+06
5e+06
5e+06
5e+06
5e+06
5e+06
5e+06
5e+06
5e+06
5e+06
5e+06
5e+06
5e+06
5e+06
5e+06
5e+06
5e+06
5e+06
5e+06
5e+06
5e+06
5e+06
5e+06
5e+06
5e+06
5e+06
5e+06
5e+06
5e+06
5e+06
5e+06
5e+06
5e+06
5e+06
5e+06
5e+06
5e+06
5e+06
5e+06
5e+06
5e+06
5e+06
5e+06
5e+06
5e+06
5e+06
5e+06
5e+06
5e+06
5e+06
5e+06
5e+06
5e+06
5e+06
5e+06
5e+06
5e+06
5e+06
5e+06
5e+06
5e+06
5e+06
5e+06
5e+06
5e+06
5e+06
5e+06
5e+06
5e+06
5e+06
5e+06
5e+06
5e+06
5e+06
5e+06
5e+06
5e+06
5e+06
5e+06
5e+06
5e+06
5e+06
5e+06
5e+06
5e+06
5e+06
5e+06
5e+06
5e+06
5e+06
5e+06
5e+06
5e+06
5e+06
5e+06
5e+06
5e+06
5e+06
5e+06
5e+06
5e+06
5e+06
5e+06
5e+06
5e+06
5e+06
5e+06
5e+06
5e+06
5e+06
5e+06
5e+06
5e+06
5e+06
5e+06
5e+06
5e+06
5e+06
5e+06
5e+06
5e+06
5e+06
5e+06
5e+06
5e+06
5e+06
5e+06
5e+06
5e+06
5e+06
5e+06
5e+06
5e+06
5e+06
5e+06
5e+06
5e+06
5e+06
5e+06
5e+06
5e+06
5e+06
5e+06
5e+06
5e+06
5e+06
5e+06
5e+06
5e+06
5e+06
5e+06
5e+06
5e+06
5e+06
5e+06
5e+06
5e+06
5e+06
5e+06
5e+06
5e+06
5e+06
5e+06
5e+06
5e+06
5e+06
5e+06
5e+06
5e+06
5e+06
5e+06
5e+06
5e+06
5e+06
5e+06
5e+06
5e+06
5e+06
5e+06
5e+06
5e+06
5e+06
5e+06
5e+06
5e+06
5e+06
5e+06
5e+06
5e+06
5e+06
5e+06
5e+06
5e+06
5e+06
5e+06
5e+06
5e+06
5e+06
5e+06
5e+06
5e+06
5e+06
5e+06
5e+06
5e+06
5e+06
5e+06
5e+06
5e+06
5e+06
5e+06
5e+06
5e+06
5e+06
5e+06
5e+06
5e+06
5e+06
5e+06
5e+06
5e+06
5e+06
5e+06
5e+06
5e+06
5e+06
5e+06
5e+06
5e+06
5e+06
5e+06
5e+06
5e+06
5e+06
5e+06
5e+06
5e+06
5e+06
5e+06
5e+06
5e+06
5e+06
5e+06
5e+06
5e+06
5e+06
5e+06
5e+06
5e+06
5e+06
5e+06
5e+06
5e+06
5e+06
5e+06
5e+06
5e+06
5e+06
5e+06
5e+06
5e+06
5e+06
5e+06
5e+06
5e+06
5e+06
5e+06
5e+06
5e+06
5e+06
5e+06
5e+06
5e+06
5e+06
5e+06
5e+06
5e+06
5e+06
5e+06
5e+06
5e+06
5e+06
5e+06
5e+06
5e+06
5e+06
5e+06
5e+06
5e+06
5e+06
5e+06
5e+06
5e+06
5e+06
5e+06
5e+06
5e+06
5e+06
5e+06
5e+06
5e+06
5e+06
5e+06
5e+06
5e+06
5e+06
5e+06
5e+06
5e+06
5e+06
5e+06
5e+06
5e+06
5e+06
5e+06
5e+06
5e+06
5e+06
5e+06
5e+06
5e+06
5e+06
5e+06
5e+06
4.99999e+06
4.99999e+06
4.99999e+06
4.99998e+06
4.99998e+06
4.99997e+06
4.99996e+06
4.99994e+06
4.99992e+06
4.99989e+06
4.99986e+06
4.99981e+06
4.99975e+06
4.99967e+06
4.99957e+06
4.99944e+06
4.99928e+06
4.99908e+06
4.99883e+06
4.99852e+06
4.99814e+06
4.99768e+06
4.99712e+06
4.99645e+06
4.99565e+06
4.9947e+06
4.99359e+06
4.99229e+06
4.99079e+06
4.98906e+06
4.98709e+06
4.98485e+06
4.98232e+06
4.9795e+06
4.97636e+06
4.97289e+06
4.96908e+06
4.96493e+06
4.96042e+06
4.95555e+06
4.95034e+06
4.94477e+06
4.93887e+06
4.93263e+06
4.92607e+06
4.9192e+06
4.91204e+06
4.9046e+06
4.89691e+06
4.88898e+06
4.88083e+06
4.87248e+06
4.86395e+06
4.85526e+06
4.84643e+06
4.83748e+06
4.82841e+06
4.81925e+06
4.81002e+06
4.80071e+06
4.79135e+06
4.78195e+06
4.77251e+06
4.76305e+06
4.75357e+06
4.74407e+06
4.73457e+06
4.72506e+06
4.71556e+06
4.70606e+06
4.69656e+06
4.68708e+06
4.6776e+06
4.66814e+06
4.65869e+06
4.64925e+06
4.63983e+06
4.63041e+06
4.62101e+06
4.61163e+06
4.60226e+06
4.5929e+06
4.58355e+06
4.57422e+06
4.5649e+06
4.55559e+06
4.54629e+06
4.53701e+06
4.52773e+06
4.51846e+06
4.50921e+06
4.49996e+06
4.49072e+06
4.48149e+06
4.47227e+06
4.46305e+06
4.45385e+06
4.44464e+06
4.43545e+06
4.42626e+06
4.41707e+06
4.40789e+06
4.39872e+06
4.38955e+06
4.38038e+06
4.37122e+06
4.36206e+06
4.3529e+06
4.34375e+06
4.3346e+06
4.32545e+06
4.31631e+06
4.30716e+06
4.29802e+06
4.28888e+06
4.27974e+06
4.27061e+06
4.26147e+06
4.25233e+06
4.2432e+06
4.23407e+06
4.22494e+06
4.21581e+06
4.20668e+06
4.19755e+06
4.18843e+06
4.1793e+06
4.17017e+06
4.16105e+06
4.15193e+06
4.1428e+06
4.13368e+06
4.12456e+06
4.11543e+06
4.10631e+06
4.09719e+06
4.08806e+06
4.07894e+06
4.06981e+06
4.06068e+06
4.05155e+06
4.04242e+06
4.03329e+06
4.02415e+06
4.01501e+06
4.00587e+06
3.99672e+06
3.98757e+06
3.97841e+06
3.96925e+06
3.96009e+06
3.95092e+06
3.94174e+06
3.93256e+06
3.92337e+06
3.91418e+06
3.90498e+06
3.89577e+06
3.88655e+06
3.87732e+06
3.86809e+06
3.85885e+06
3.84959e+06
3.84033e+06
3.83106e+06
3.82178e+06
3.81249e+06
3.80319e+06
3.79387e+06
3.78455e+06
3.77521e+06
3.76586e+06
3.7565e+06
3.74712e+06
3.73774e+06
3.72833e+06
3.71892e+06
3.70949e+06
3.70004e+06
3.69057e+06
3.68109e+06
3.6716e+06
3.66208e+06
3.65255e+06
3.643e+06
3.63343e+06
3.62383e+06
3.61422e+06
3.60459e+06
3.59493e+06
3.58525e+06
3.57554e+06
3.56582e+06
3.55606e+06
3.54628e+06
3.53647e+06
3.52663e+06
3.51677e+06
3.50687e+06
3.49694e+06
3.48699e+06
3.47699e+06
3.46697e+06
3.45691e+06
3.44681e+06
3.43668e+06
3.42652e+06
3.41633e+06
3.40611e+06
3.39587e+06
3.38564e+06
3.3754e+06
3.36523e+06
3.35512e+06
3.34508e+06
3.33508e+06
3.3251e+06
3.3151e+06
3.30508e+06
3.29504e+06
3.28497e+06
3.2749e+06
3.26477e+06
3.25467e+06
3.24456e+06
3.23442e+06
3.22429e+06
3.21417e+06
3.20403e+06
3.19388e+06
3.18372e+06
3.17357e+06
3.1634e+06
3.15323e+06
3.14306e+06
3.13289e+06
3.12272e+06
3.11254e+06
3.10236e+06
3.09219e+06
3.08201e+06
3.07184e+06
3.06167e+06
3.0515e+06
3.04134e+06
3.03118e+06
3.02103e+06
3.01088e+06
3.00074e+06
2.99061e+06
2.98049e+06
2.97038e+06
2.96029e+06
2.9502e+06
2.94013e+06
2.93008e+06
2.92004e+06
2.91001e+06
2.90001e+06
2.89003e+06
2.88007e+06
2.87013e+06
2.86021e+06
2.85032e+06
2.84046e+06
2.83063e+06
2.82083e+06
2.81107e+06
2.80135e+06
2.79166e+06
2.78202e+06
2.77241e+06
2.76286e+06
2.75335e+06
2.74389e+06
2.73449e+06
2.72514e+06
2.71586e+06
2.70664e+06
2.6975e+06
2.68843e+06
2.67944e+06
2.67054e+06
2.66173e+06
2.653e+06
2.64438e+06
2.63585e+06
2.62744e+06
2.61914e+06
2.61097e+06
2.60293e+06
2.59502e+06
2.58726e+06
2.57965e+06
2.5722e+06
2.56492e+06
2.55783e+06
2.55093e+06
2.54424e+06
2.53777e+06
2.53155e+06
2.52557e+06
2.51986e+06
2.51442e+06
2.50924e+06
2.50432e+06
2.49963e+06
2.4951e+06
2.49061e+06
2.48575e+06
2.47961e+06
)
;

boundaryField
{
    sideLeft
    {
        type            symmetryPlane;
    }
    sideRight
    {
        type            myWaveTransmissive;
        phi             phi.air;
        rho             rho.air;
        psi             thermo:psi.air;
        gamma           1.4;
        fieldInf        100000;
        lInf            10;
        value           uniform 2.47387e+06;
    }
    topbottom
    {
        type            empty;
    }
    frontback
    {
        type            empty;
    }
}


// ************************************************************************* //
