/*--------------------------------*- C++ -*----------------------------------*\
| =========                 |                                                 |
| \\      /  F ield         | OpenFOAM: The Open Source CFD Toolbox           |
|  \\    /   O peration     | Version:  2.4.0                                 |
|   \\  /    A nd           | Web:      www.OpenFOAM.org                      |
|    \\/     M anipulation  |                                                 |
\*---------------------------------------------------------------------------*/
FoamFile
{
    version     2.0;
    format      ascii;
    class       surfaceScalarField;
    location    "0.09";
    object      phi;
}
// * * * * * * * * * * * * * * * * * * * * * * * * * * * * * * * * * * * * * //

dimensions      [0 3 -1 0 0 0 0];

internalField   nonuniform List<scalar> 
999
(
-1.32104e-12
-1.13825e-12
-1.28631e-12
-6.74604e-13
8.66876e-13
3.33709e-13
1.13891e-12
5.68434e-13
1.28239e-12
7.10299e-13
1.08804e-12
1.56319e-13
6.98948e-13
1.99569e-13
5.37511e-13
1.49362e-12
1.98765e-12
2.85238e-12
2.58909e-12
2.05586e-12
1.17701e-12
8.80688e-13
-3.2685e-13
4.89312e-13
1.44864e-12
1.3368e-12
1.51978e-12
4.24385e-13
4.17491e-13
-3.44881e-13
-9.95362e-13
-1.19053e-12
-2.06184e-12
-1.41732e-12
-1.04495e-12
-2.11438e-12
-2.34139e-12
-2.30859e-12
-2.85016e-12
-2.79754e-12
-1.21042e-12
-1.1526e-12
-1.40494e-12
-1.22823e-12
-1.18706e-12
-1.07412e-12
-5.25802e-13
-1.70259e-12
-1.85809e-12
-1.39548e-12
-9.86167e-13
5.1006e-13
-9.9476e-14
4.26325e-14
4.29612e-13
9.32168e-13
1.15824e-13
-1.53235e-14
-3.55577e-13
-1.06422e-12
-1.02694e-12
-7.12735e-13
-1.19872e-12
-5.09559e-13
-4.26325e-14
-4.26327e-14
4.68958e-13
1.34427e-12
1.94226e-13
-4.68806e-13
-9.17164e-13
-1.83225e-12
-2.35791e-12
-2.32895e-12
-1.00482e-12
-1.5153e-12
-1.28145e-12
-1.01077e-12
-3.08247e-12
-2.44252e-12
-1.94392e-12
-3.50728e-13
-1.98952e-13
-6.14671e-13
-1.02437e-12
-1.71559e-12
2.2825e-13
1.12126e-12
1.61899e-12
1.17943e-12
1.51774e-12
1.72424e-12
3.8875e-13
1.29165e-12
3.81983e-13
2.98248e-14
8.61824e-13
1.0895e-12
1.74647e-12
7.40147e-13
8.89461e-13
8.48068e-13
1.02799e-12
1.69181e-12
1.81494e-12
1.7854e-12
3.61057e-12
4.14421e-12
4.38385e-12
2.39701e-12
2.95254e-12
2.41671e-12
3.79426e-14
-5.4843e-13
-2.09672e-13
6.4493e-13
6.40267e-13
-7.85421e-13
-9.55011e-13
-2.32163e-12
-9.64309e-13
-2.11878e-12
-2.57746e-12
-2.73314e-12
-3.32188e-12
-2.78538e-12
-4.15577e-12
-2.48238e-12
-1.36791e-12
-1.18889e-12
-1.1471e-12
-6.256e-13
1.27898e-13
2.5233e-13
-1.77388e-13
-7.4948e-13
-1.83427e-12
-1.14099e-12
-1.37151e-12
-1.04357e-12
-6.08953e-13
2.65252e-13
-3.55271e-13
-2.27374e-13
-2.30343e-13
-4.9738e-13
-1.16362e-12
-1.03529e-12
-2.29221e-12
-2.37809e-12
-3.48359e-12
-2.81983e-12
-2.18771e-12
-2.40353e-12
-2.22397e-12
-1.74657e-12
-1.16262e-12
-1.98896e-12
-2.43944e-12
-2.15421e-12
-2.32851e-12
-6.11067e-13
-9.37674e-13
5.6171e-13
1.64197e-12
1.06049e-12
-9.82596e-14
3.77865e-13
-6.33985e-13
-6.58646e-13
-1.85605e-12
-3.0557e-12
-2.01316e-12
-2.63536e-12
-2.96626e-12
-2.54963e-12
-4.17143e-12
-4.73263e-12
-4.47898e-12
-2.47311e-12
-1.90363e-12
-5.16693e-13
-6.6791e-13
-1.55925e-12
-2.2087e-12
-2.38124e-12
-2.02049e-12
-3.65848e-12
-3.25036e-12
-2.22198e-12
-2.00415e-12
-1.53703e-12
-2.83266e-12
-2.5246e-12
-1.48281e-12
-1.13687e-12
-7.27373e-13
-1.3045e-12
-6.00761e-13
-6.57112e-13
-1.68323e-12
-4.79097e-13
-1.18803e-12
-5.74647e-13
-9.04816e-13
-1.00805e-12
-4.80204e-13
-3.47648e-13
-4.67484e-13
-5.06136e-13
-4.83508e-13
-1.20587e-12
-2.91714e-13
-1.4441e-12
-1.86696e-12
-8.37065e-13
-8.55139e-14
8.69758e-13
1.30307e-12
1.369e-12
2.76815e-12
1.91326e-12
2.1101e-12
2.37837e-12
2.69121e-12
2.39842e-12
3.3448e-12
2.45323e-12
2.20626e-12
2.21076e-12
2.11997e-12
1.6473e-12
2.32201e-12
1.80662e-12
1.42626e-12
1.12382e-12
-4.59086e-13
-1.03828e-12
-6.80831e-13
-1.22644e-12
-2.36085e-12
-2.39018e-12
-1.34766e-12
-1.45982e-12
-1.74148e-12
-8.70739e-13
-6.15032e-13
-2.47235e-13
-5.5546e-13
-1.78751e-12
-8.07614e-13
-1.1536e-12
-1.92454e-12
-1.60271e-12
-1.82817e-12
-1.4673e-12
-3.09699e-12
-3.54379e-12
-2.90544e-12
-2.1025e-12
-2.08993e-12
-1.51515e-13
-5.57947e-13
-1.31735e-12
-2.57655e-12
-3.15774e-12
-3.63359e-12
-3.87085e-12
-1.48892e-12
-1.68458e-12
-2.78752e-12
-1.83106e-12
-2.63148e-12
-1.99515e-12
-1.59108e-12
-1.92883e-12
-3.51518e-13
1.14143e-13
-9.94756e-14
-1.71833e-13
-8.12678e-15
6.83758e-13
1.31294e-12
1.28095e-12
1.7553e-12
1.90332e-12
2.41833e-12
2.44962e-12
1.65276e-12
2.77031e-12
2.4997e-12
1.37874e-12
7.43678e-13
9.83842e-13
5.88603e-13
-5.36839e-13
-4.26326e-14
-1.63909e-13
-2.4672e-13
1.16402e-12
1.7511e-12
1.67933e-12
1.24312e-12
1.22496e-12
1.10169e-12
2.39143e-12
3.23825e-12
3.14502e-12
3.65108e-12
3.2824e-12
2.07917e-12
9.28279e-13
1.29011e-12
1.46451e-12
2.63647e-12
3.29799e-12
3.4837e-12
3.0861e-12
3.9243e-12
3.55486e-12
3.80165e-12
3.53083e-12
3.09475e-12
3.68518e-12
3.30597e-12
2.82961e-12
4.33711e-12
5.11624e-12
5.20246e-12
5.61607e-12
3.94667e-12
2.5848e-12
2.73851e-12
1.95076e-12
3.26068e-12
1.66208e-12
1.65984e-12
2.8151e-12
2.47314e-12
2.03621e-12
1.18619e-12
3.83693e-13
-3.6131e-13
3.19949e-13
-1.64135e-13
-1.61857e-12
-1.52299e-12
-3.02965e-12
-1.73e-12
-1.87989e-12
-2.33019e-12
-1.60689e-12
-1.63483e-12
-1.02939e-12
-3.97064e-13
-5.1779e-13
1.13687e-13
1.57853e-12
1.17584e-12
2.37479e-13
4.67968e-13
-1.50922e-13
4.12115e-13
1.12296e-12
1.09871e-12
9.14231e-13
-5.80591e-13
-1.25785e-12
8.52655e-14
-4.72297e-13
-1.63455e-12
-1.52293e-12
-1.59277e-12
-2.05271e-12
-1.86504e-12
-2.36472e-12
-1.69025e-12
-2.52573e-12
-8.84964e-13
4.21937e-14
4.50458e-13
3.49627e-13
2.92049e-13
2.10259e-13
-1.00104e-13
4.09178e-14
-5.11591e-13
-1.23221e-12
-2.45972e-13
7.25651e-13
1.10992e-12
2.90583e-12
1.41475e-12
1.48282e-12
1.04843e-12
8.10147e-13
7.66617e-14
-1.84741e-13
-6.39272e-13
-1.01947e-12
1.80355e-13
5.05219e-13
-7.06133e-14
-1.97475e-12
-1.93945e-12
-3.47721e-13
1.49989e-12
2.51538e-12
2.72487e-12
2.67683e-12
3.303e-12
3.51618e-12
4.11578e-12
1.74379e-12
2.13467e-12
1.78338e-12
2.26542e-12
9.03793e-13
1.0293e-12
1.66465e-12
1.59114e-12
2.81561e-12
1.13297e-12
4.95337e-13
1.45653e-12
1.19729e-12
3.36127e-14
1.15775e-12
2.89534e-12
3.25962e-12
2.23719e-12
3.44783e-12
4.36507e-12
4.30991e-12
6.14365e-12
6.9425e-12
7.09464e-12
5.35722e-12
6.1828e-12
5.24496e-12
5.10483e-12
3.83422e-12
3.34143e-12
1.92105e-12
2.85843e-12
1.39874e-12
9.38043e-13
1.38577e-12
8.52653e-14
2.09965e-13
8.02464e-13
7.29841e-13
5.97363e-13
9.32422e-14
7.02495e-13
1.41494e-12
1.98769e-12
1.4134e-12
2.55147e-12
3.5813e-12
3.29719e-12
3.75054e-12
3.50057e-12
2.70667e-12
2.92807e-12
2.46511e-12
2.04212e-12
1.91154e-12
2.73321e-12
3.39797e-12
3.05354e-12
3.30599e-12
3.57739e-12
3.45448e-12
3.08834e-12
2.37328e-12
2.45338e-12
9.16805e-13
1.11186e-12
5.76456e-13
-2.8422e-14
-1.6888e-12
-3.14534e-12
-1.7412e-12
-2.04683e-12
-2.027e-12
-2.01704e-12
-2.23366e-12
-2.88821e-12
-4.14122e-12
-4.5689e-12
-5.17921e-12
-5.04105e-12
-4.32368e-12
-2.09142e-12
-4.68959e-13
-6.88765e-13
-1.99947e-13
1.27898e-13
7.73416e-13
8.76341e-13
-1.43043e-13
8.64197e-13
-1.91861e-13
-1.13687e-13
-1.22938e-12
-1.48429e-12
-1.84625e-12
-2.49399e-12
-2.61835e-12
-2.87673e-12
-2.27571e-12
-2.17904e-12
-2.33354e-12
-2.66603e-12
-2.26613e-12
-3.07255e-12
-1.8117e-12
-8.67216e-13
-1.24212e-12
-1.60223e-12
-1.84423e-12
-1.74789e-12
-9.94369e-13
5.68431e-14
-4.12115e-13
-7.65741e-13
-6.13239e-13
-1.19205e-12
-1.31944e-12
-1.56338e-13
1.18062e-12
1.13996e-12
6.23822e-13
3.34264e-13
1.11539e-12
1.42108e-13
-4.16656e-13
-1.39279e-12
-6.96332e-13
-1.23418e-12
-4.92189e-13
2.48206e-13
7.88066e-13
1.18061e-12
1.53914e-12
2.35844e-12
8.33655e-13
-1.71513e-13
-2.70006e-13
-2.84217e-13
6.11805e-13
1.23829e-12
1.76207e-12
1.66602e-12
2.00418e-12
2.22493e-12
2.8459e-12
2.4518e-12
3.5533e-12
3.16474e-12
2.19694e-12
9.13374e-13
3.63809e-13
8.66707e-13
-1.15712e-13
-2.61985e-13
-5.84694e-13
-2.1564e-13
-9.41473e-13
-7.08277e-13
-1.42495e-12
-2.06534e-12
-1.45989e-12
-5.60299e-13
3.2685e-13
-4.8317e-13
-1.75127e-12
-1.04625e-12
-2.55218e-12
-7.29085e-13
-2.28769e-12
-1.12195e-12
-1.40335e-12
-1.50677e-12
-1.04052e-12
1.42507e-13
5.64278e-13
9.06689e-13
8.54397e-14
-9.89783e-13
-1.02677e-12
-1.36393e-12
-1.69442e-12
-2.12429e-12
-7.46366e-13
-9.03816e-13
-1.58611e-12
-1.25562e-12
-3.69827e-13
-4.27126e-13
-4.76476e-13
-8.03456e-13
-1.18155e-12
-6.8302e-13
-9.52695e-13
3.83693e-13
1.85671e-12
2.42691e-12
1.83332e-12
2.36557e-12
2.09567e-12
2.34733e-12
1.79081e-12
2.2212e-12
2.14929e-12
2.15415e-12
2.41121e-12
2.56338e-12
1.84785e-12
1.27449e-12
-1.47422e-13
-6.29182e-13
-1.64612e-12
-1.97507e-12
-3.67493e-12
-3.48007e-12
-3.67338e-12
-4.90407e-12
-4.23214e-12
-4.95329e-12
-5.16352e-12
-5.23881e-12
-4.23705e-12
-3.23612e-12
-2.97781e-12
-3.43951e-12
-2.24341e-12
-2.50363e-12
-2.61586e-12
-8.40769e-13
-1.14625e-12
-4.34331e-19
1.11208e-12
3.45979e-12
4.21953e-12
7.30472e-12
1.13798e-11
1.76666e-11
2.82928e-11
4.59083e-11
7.64147e-11
1.26332e-10
2.10545e-10
3.51609e-10
5.88428e-10
9.76798e-10
1.61434e-09
2.65682e-09
4.35273e-09
7.10482e-09
1.15384e-08
1.86523e-08
3.00154e-08
4.80801e-08
7.66651e-08
1.21679e-07
1.92224e-07
3.02246e-07
4.72996e-07
7.36689e-07
1.14189e-06
1.76141e-06
2.70381e-06
4.13008e-06
6.2775e-06
9.49392e-06
1.42862e-05
2.13888e-05
3.18592e-05
4.7211e-05
6.95977e-05
0.000102064
0.000148887
0.000216038
0.000311797
0.000447576
0.000638989
0.000907264
0.00128106
0.00179878
0.00251155
0.00348692
0.00481348
0.00660653
0.00901498
0.0122297
0.0164931
0.0221111
0.0294659
0.0390311
0.0513888
0.067247
0.0874601
0.113048
0.145218
0.185382
0.235176
0.296478
0.371411
0.462358
0.571956
0.703086
0.85886
1.04259
1.25775
1.50795
1.79682
2.12805
2.50521
2.93177
3.41096
3.94576
4.53877
5.1922
5.90782
6.68689
7.53015
8.43783
9.40962
10.4447
11.5418
12.6991
13.9145
15.1854
16.5092
17.8826
19.3026
20.7657
22.2687
23.808
25.3804
26.9826
28.6114
30.2638
31.9371
33.6284
35.3356
37.0562
38.7883
40.5302
42.2801
44.0368
45.799
47.5655
49.3357
51.1086
52.8837
54.6605
56.4386
58.2175
59.9972
61.7773
63.5578
65.3386
67.1196
68.9008
70.6822
72.4638
74.2457
76.0279
77.8105
79.5935
81.3771
83.1613
84.9462
86.732
88.5186
90.3062
92.0949
93.8848
95.6759
97.4685
99.2625
101.058
102.855
104.654
106.455
108.258
110.062
111.869
113.678
115.489
117.303
119.119
120.937
122.758
124.582
126.408
128.237
130.068
131.903
133.74
135.58
137.423
139.269
141.118
142.971
144.826
146.684
148.546
150.411
152.278
154.149
156.024
157.901
159.782
161.667
163.554
165.446
167.34
169.238
171.14
173.046
174.955
176.868
178.785
180.705
182.63
184.559
186.492
188.43
190.372
192.318
194.269
196.224
198.184
200.149
202.12
204.095
206.075
208.061
210.052
212.048
214.05
216.058
218.072
220.091
222.117
224.148
226.186
228.23
230.281
232.338
234.402
236.472
238.55
240.634
242.726
244.824
246.931
249.044
251.166
253.295
255.432
257.578
259.731
261.894
264.064
266.244
268.433
270.63
272.838
275.055
277.281
279.518
281.765
284.021
286.291
288.57
290.86
293.162
295.476
297.802
300.141
302.491
304.856
307.233
309.624
312.029
314.448
316.882
319.331
321.795
324.274
326.769
329.279
331.804
334.343
336.877
339.256
341.616
343.973
346.328
348.684
351.043
353.408
355.778
358.155
360.535
362.922
365.314
367.71
370.112
372.516
374.922
377.33
379.744
382.162
384.582
387.004
389.43
391.858
394.287
396.719
399.153
401.588
404.025
406.464
408.903
411.343
413.783
416.224
418.665
421.106
423.546
425.986
428.425
430.863
433.299
435.733
438.165
440.595
443.022
445.446
447.865
450.282
452.693
455.1
457.502
459.9
462.29
464.675
467.052
469.42
471.78
474.13
476.47
478.8
481.118
483.424
485.717
487.996
490.261
492.509
494.74
496.952
499.144
501.314
503.461
505.584
507.68
509.749
511.788
513.798
515.775
517.718
519.622
521.488
523.309
525.088
526.818
528.501
530.13
531.705
533.217
534.665
536.04
537.343
538.562
539.699
540.746
541.703
542.567
543.346
544.044
544.467
545.444
547.824
)
;

boundaryField
{
    sideLeft
    {
        type            symmetryPlane;
        value           uniform 0;
    }
    sideRight
    {
        type            calculated;
        value           uniform 551.118;
    }
    topbottom
    {
        type            empty;
        value           nonuniform 0();
    }
    frontback
    {
        type            empty;
        value           nonuniform 0();
    }
}


// ************************************************************************* //
