/*--------------------------------*- C++ -*----------------------------------*\
| =========                 |                                                 |
| \\      /  F ield         | OpenFOAM: The Open Source CFD Toolbox           |
|  \\    /   O peration     | Version:  2.4.0                                 |
|   \\  /    A nd           | Web:      www.OpenFOAM.org                      |
|    \\/     M anipulation  |                                                 |
\*---------------------------------------------------------------------------*/
FoamFile
{
    version     2.0;
    format      ascii;
    class       surfaceScalarField;
    location    "0.09";
    object      phi.water;
}
// * * * * * * * * * * * * * * * * * * * * * * * * * * * * * * * * * * * * * //

dimensions      [0 3 -1 0 0 0 0];

internalField   nonuniform List<scalar> 
999
(
-1.20735e-12
-1.30878e-12
-1.05893e-12
-8.45135e-13
8.10033e-13
5.61083e-13
7.97849e-13
9.09495e-13
1.05502e-12
9.37673e-13
8.60668e-13
7.81597e-13
7.36702e-14
3.13256e-13
5.94355e-13
1.32309e-12
2.32871e-12
2.68185e-12
2.19119e-12
1.77164e-12
1.17701e-12
8.23844e-13
1.42105e-14
7.16686e-13
1.61917e-12
1.39364e-12
1.34925e-12
4.81228e-13
4.74334e-13
-1.74351e-13
-8.24832e-13
-1.47474e-12
-2.06184e-12
-1.41732e-12
-9.88109e-13
-2.05754e-12
-2.11402e-12
-2.47912e-12
-2.907e-12
-2.74069e-12
-1.26727e-12
-1.43682e-12
-1.29125e-12
-1.0577e-12
-1.13022e-12
-1.07412e-12
-6.96332e-13
-1.53206e-12
-1.7444e-12
-1.56601e-12
-5.88263e-13
1.68999e-13
1.42109e-14
-1.84741e-13
7.70673e-13
9.89011e-13
-1.1155e-13
-1.53235e-14
-4.1242e-13
-7.80002e-13
-1.25432e-12
-8.26422e-13
-1.02819e-12
-3.39029e-13
-3.2685e-13
-9.94761e-14
7.53175e-13
1.28743e-12
1.37383e-13
-6.39337e-13
-8.6032e-13
-1.54803e-12
-2.41475e-12
-1.98789e-12
-1.2322e-12
-1.17424e-12
-1.39514e-12
-1.80658e-12
-2.74141e-12
-2.21515e-12
-2.45551e-12
4.71755e-14
-2.55796e-13
-5.00984e-13
-1.30859e-12
-1.14716e-12
-5.59668e-14
1.12126e-12
2.01689e-12
1.06574e-12
1.17668e-12
1.66739e-12
6.72967e-13
4.95839e-13
7.23044e-13
4.27729e-13
4.07076e-13
1.37372e-12
2.03069e-12
5.69617e-13
7.75774e-13
7.91225e-13
1.14168e-12
1.46444e-12
1.87178e-12
1.61487e-12
3.7811e-12
4.76949e-12
3.70172e-12
2.56754e-12
3.12307e-12
2.35987e-12
9.4786e-14
-9.46334e-13
2.45075e-13
9.8599e-13
-4.18539e-14
-8.99107e-13
-1.29607e-12
-1.69635e-12
-9.64309e-13
-2.23246e-12
-2.46377e-12
-3.13104e-12
-2.98082e-12
-2.89906e-12
-3.87155e-12
-2.59607e-12
-1.25422e-12
-1.0752e-12
-1.43131e-12
-5.11913e-13
1.84741e-13
3.09173e-13
-6.85728e-15
-9.2001e-13
-1.89111e-12
-1.14099e-12
-1.99679e-12
-3.6145e-13
-6.65796e-13
-3.60025e-13
1.56319e-13
1.13687e-13
-6.28247e-13
2.41584e-13
-1.95943e-12
-1.20582e-12
-2.12168e-12
-2.43493e-12
-3.31306e-12
-2.81983e-12
-2.41508e-12
-1.94878e-12
-2.33766e-12
-1.63288e-12
-1.38999e-12
-1.98896e-12
-2.15522e-12
-2.2679e-12
-2.0443e-12
-1.06581e-12
-8.23987e-13
4.48023e-13
1.24406e-12
1.28786e-12
5.83861e-13
9.36482e-14
-6.90828e-13
-3.74429e-13
-2.02658e-12
-3.11254e-12
-2.24054e-12
-2.57851e-12
-2.85258e-12
-2.83384e-12
-4.22827e-12
-4.67578e-12
-4.42214e-12
-2.30258e-12
-2.01731e-12
-5.73537e-13
-4.40536e-13
-1.84346e-12
-1.75395e-12
-2.55177e-12
-2.24786e-12
-3.20373e-12
-3.25036e-12
-2.5062e-12
-2.06099e-12
-1.42335e-12
-2.60528e-12
-2.86566e-12
-1.48281e-12
-1.08003e-12
-9.54746e-13
-6.79224e-13
-4.30231e-13
-1.11186e-12
-1.00111e-12
-9.90688e-13
-1.07435e-12
-9.15708e-13
-7.91129e-13
-1.00805e-12
-1.95987e-13
-3.47648e-13
-4.1064e-13
-9.0404e-13
-4.83508e-13
-1.20587e-12
-6.32775e-13
-9.32514e-13
-1.75327e-12
-9.50751e-13
-2.86705e-14
8.69758e-13
1.13254e-12
1.31215e-12
2.76815e-12
1.97011e-12
1.71219e-12
2.77627e-12
2.63437e-12
2.62579e-12
3.11743e-12
2.45323e-12
2.54732e-12
2.15391e-12
2.11997e-12
1.87467e-12
2.20832e-12
1.52241e-12
1.53994e-12
1.12382e-12
-3.45399e-13
-8.67751e-13
-6.80831e-13
-1.45381e-12
-2.24716e-12
-2.50387e-12
-1.29082e-12
-1.57351e-12
-2.30992e-12
-3.02305e-13
-5.01346e-13
-3.04079e-13
-3.84929e-13
-2.24226e-12
-8.07614e-13
-1.26729e-12
-1.69717e-12
-1.7164e-12
-1.60079e-12
-1.41046e-12
-3.04015e-12
-3.71432e-12
-2.84859e-12
-2.55725e-12
-1.97624e-12
-3.22045e-13
-1.03199e-13
-1.7721e-12
-2.29234e-12
-3.04405e-12
-3.63359e-12
-3.41611e-12
-2.17104e-12
-1.40036e-12
-2.50331e-12
-2.00159e-12
-2.74516e-12
-1.9383e-12
-1.42055e-12
-2.1562e-12
-4.08362e-13
3.41517e-13
-2.13162e-13
-1.71833e-13
-8.12678e-15
5.70071e-13
1.59716e-12
1.16727e-12
2.09636e-12
1.44858e-12
2.75939e-12
2.1654e-12
1.76645e-12
2.59978e-12
2.44286e-12
1.37874e-12
5.16304e-13
1.04069e-12
5.88603e-13
-2.52622e-13
-2.70006e-13
-5.02225e-14
1.51184e-13
1.10718e-12
1.3532e-12
1.73617e-12
1.35681e-12
9.97591e-13
1.21538e-12
2.33459e-12
3.40878e-12
2.69027e-12
3.87846e-12
3.45293e-12
1.7381e-12
1.2125e-12
1.29011e-12
1.12345e-12
2.57963e-12
3.01377e-12
3.93845e-12
3.484e-12
3.24218e-12
3.95277e-12
4.14271e-12
3.18977e-12
3.0379e-12
3.91255e-12
2.90807e-12
2.77277e-12
4.50764e-12
5.00255e-12
5.08878e-12
5.61607e-12
4.1172e-12
2.92586e-12
2.45429e-12
1.95076e-12
2.74909e-12
2.17367e-12
1.71669e-12
2.58773e-12
2.64367e-12
2.09306e-12
1.35672e-12
-1.84741e-13
3.65935e-14
2.63106e-13
-3.34665e-13
-1.27751e-12
-1.92089e-12
-2.63175e-12
-1.78684e-12
-2.2778e-12
-2.2165e-12
-1.60689e-12
-1.40745e-12
-1.48414e-12
-1.12847e-13
-3.4726e-13
5.68437e-14
1.18063e-12
1.119e-12
5.21696e-13
2.97438e-13
4.17513e-13
7.10547e-14
1.23665e-12
1.26924e-12
9.71074e-13
-1.20587e-12
-8.59948e-13
2.84221e-14
-5.2914e-13
-1.80508e-12
-1.69346e-12
-1.2517e-12
-2.05271e-12
-1.8082e-12
-2.13734e-12
-2.145e-12
-2.24152e-12
-8.28121e-13
2.12724e-13
5.25537e-14
2.3594e-13
4.6258e-13
9.65717e-14
2.978e-13
-3.56986e-13
-3.97904e-13
-9.47992e-13
-7.0072e-13
6.68807e-13
1.79204e-12
2.50792e-12
1.75581e-12
1.48282e-12
7.64211e-13
9.23834e-13
-9.38686e-14
-1.84741e-13
-5.25585e-13
-1.07631e-12
2.37198e-13
3.34689e-13
-7.06133e-14
-1.91791e-12
-1.65523e-12
-2.90877e-13
1.32936e-12
2.34485e-12
2.72487e-12
2.33577e-12
3.35984e-12
3.80039e-12
4.11578e-12
1.74379e-12
2.24836e-12
1.84022e-12
1.69698e-12
1.35854e-12
1.0293e-12
1.32358e-12
1.64798e-12
2.53139e-12
1.18982e-12
1.00693e-12
8.88092e-13
1.36782e-12
3.1783e-13
6.46156e-13
3.06587e-12
3.48699e-12
2.23719e-12
3.6752e-12
4.02401e-12
4.59413e-12
6.0868e-12
6.82881e-12
7.15148e-12
5.35722e-12
6.1828e-12
5.47234e-12
5.27536e-12
3.72053e-12
3.1709e-12
2.09158e-12
2.57422e-12
1.68296e-12
7.67513e-13
1.49946e-12
-1.98952e-13
3.23652e-13
8.02464e-13
1.01406e-12
4.83676e-13
-2.04447e-14
1.15724e-12
1.07388e-12
1.98769e-12
1.58393e-12
2.38094e-12
3.52446e-12
3.69509e-12
3.29579e-12
3.21636e-12
2.93404e-12
3.04176e-12
2.35143e-12
2.44002e-12
1.8547e-12
2.84689e-12
3.11375e-12
3.3946e-12
2.7944e-12
3.97529e-12
3.45448e-12
3.25887e-12
1.97538e-12
2.73759e-12
1.03049e-12
9.41325e-13
6.90143e-13
8.52649e-14
-1.91618e-12
-3.0885e-12
-1.85489e-12
-1.93314e-12
-1.79962e-12
-2.18757e-12
-2.40419e-12
-2.83136e-12
-4.02753e-12
-4.5689e-12
-5.40658e-12
-5.21158e-12
-4.0963e-12
-2.3188e-12
-6.96332e-13
-2.90861e-13
-1.43103e-13
-4.26327e-14
1.05763e-12
8.76341e-13
8.43309e-14
6.36823e-13
-2.48704e-13
-5.68436e-14
-1.28623e-12
-1.82535e-12
-1.73257e-12
-2.3803e-12
-2.33413e-12
-2.81989e-12
-2.55992e-12
-1.95166e-12
-2.44722e-12
-2.66603e-12
-2.37981e-12
-2.73149e-12
-2.03907e-12
-1.20828e-12
-1.01474e-12
-1.54538e-12
-2.0716e-12
-1.6342e-12
-9.37525e-13
-2.80848e-19
-2.41585e-13
-8.79428e-13
-3.85865e-13
-1.24889e-12
-1.48997e-12
7.10353e-14
8.39556e-13
1.25364e-12
7.37509e-13
4.47951e-13
1.05855e-12
-2.84221e-14
-4.16656e-13
-1.27911e-12
-6.39489e-13
-8.36274e-13
-9.46937e-13
3.05049e-13
8.4491e-13
8.96393e-13
1.99389e-12
2.07422e-12
8.33655e-13
-1.1467e-13
-3.2685e-13
2.27374e-13
5.54962e-13
9.54071e-13
1.76207e-12
1.77971e-12
1.60627e-12
2.50914e-12
2.67537e-12
2.79286e-12
3.15539e-12
3.39212e-12
2.36747e-12
6.86e-13
5.34339e-13
5.25646e-13
2.25349e-13
-1.48298e-13
-5.84694e-13
-5.56701e-13
-8.27787e-13
-9.92494e-13
-8.56515e-13
-2.12218e-12
-1.57358e-12
-5.03456e-13
9.94761e-14
-2.55796e-13
-1.86496e-12
-1.15994e-12
-1.98374e-12
-1.07015e-12
-2.23084e-12
-8.94574e-13
-1.40335e-12
-1.22256e-12
-1.49527e-12
1.99351e-13
4.50592e-13
6.22472e-13
-1.41934e-13
-9.3294e-13
-8.56244e-13
-1.1934e-12
-1.58073e-12
-1.89692e-12
-9.73739e-13
-1.0175e-12
-1.58611e-12
-1.14194e-12
-8.81418e-13
-2.56596e-13
-4.76476e-13
-8.03456e-13
-1.06787e-12
-1.02408e-12
-1.00044e-13
-2.41585e-13
1.9704e-12
2.59744e-12
1.60595e-12
2.64979e-12
2.37988e-12
1.89259e-12
1.73397e-12
2.33489e-12
2.20613e-12
2.26784e-12
2.07015e-12
2.67707e-12
1.73416e-12
1.72923e-12
-7.15856e-13
-3.44965e-13
-1.41875e-12
-2.48666e-12
-3.16333e-12
-3.48007e-12
-4.18497e-12
-4.73354e-12
-4.11845e-12
-4.8396e-12
-5.16352e-12
-5.23881e-12
-3.83914e-12
-3.74771e-12
-2.86413e-12
-3.49635e-12
-2.47078e-12
-2.3331e-12
-1.99058e-12
-1.4092e-12
-1.03256e-12
-2.27374e-13
9.41551e-13
3.40294e-12
4.16269e-12
7.0205e-12
1.1323e-11
1.77234e-11
2.80654e-11
4.56241e-11
7.60736e-11
1.26104e-10
2.09522e-10
3.50075e-10
5.85416e-10
9.72478e-10
1.60718e-09
2.64602e-09
4.33459e-09
7.07532e-09
1.14923e-08
1.8578e-08
2.98989e-08
4.78982e-08
7.63804e-08
1.21236e-07
1.9154e-07
3.01194e-07
4.71386e-07
7.34238e-07
1.13818e-06
1.75582e-06
2.69544e-06
4.1176e-06
6.259e-06
9.46666e-06
1.42463e-05
2.13306e-05
3.17747e-05
4.70893e-05
6.94234e-05
0.000101816
0.000148535
0.000215543
0.000311105
0.000446614
0.00063766
0.000905439
0.00127857
0.0017954
0.00250701
0.00348085
0.00480541
0.00659588
0.00900102
0.0122115
0.0164696
0.022081
0.0294276
0.0389827
0.0513281
0.0671715
0.0873669
0.112934
0.145079
0.185215
0.234977
0.296241
0.371133
0.462035
0.571583
0.70266
0.858378
1.04205
1.25715
1.50728
1.7961
2.12727
2.50438
2.93089
3.41004
3.9448
4.53778
5.1912
5.90681
6.68588
7.52916
8.43686
9.40869
10.4438
11.5409
12.6983
13.9138
15.1848
16.5086
17.8821
19.3022
20.7654
22.2684
23.8078
25.3803
26.9825
28.6114
30.2638
31.9371
33.6285
35.3357
37.0564
38.7885
40.5304
42.2804
44.0371
45.7992
47.5658
49.336
51.1089
52.884
54.6608
56.4389
58.2178
59.9975
61.7776
63.5581
65.3389
67.1199
68.9011
70.6825
72.4641
74.246
76.0282
77.8107
79.5938
81.3774
83.1616
84.9465
86.7322
88.5188
90.3065
92.0951
93.885
95.6762
97.4687
99.2627
101.058
102.855
104.654
106.455
108.258
110.063
111.869
113.678
115.49
117.303
119.119
120.937
122.758
124.582
126.408
128.237
130.068
131.903
133.74
135.58
137.423
139.27
141.119
142.971
144.826
146.684
148.546
150.411
152.279
154.15
156.024
157.902
159.783
161.667
163.555
165.446
167.34
169.239
171.14
173.046
174.955
176.868
178.785
180.706
182.63
184.559
186.492
188.43
190.372
192.318
194.269
196.224
198.184
200.15
202.12
204.095
206.075
208.061
210.052
212.048
214.05
216.058
218.072
220.091
222.117
224.148
226.186
228.23
230.281
232.338
234.402
236.472
238.55
240.634
242.726
244.825
246.931
249.045
251.166
253.295
255.432
257.578
259.732
261.894
264.064
266.244
268.433
270.63
272.838
275.055
277.281
279.518
281.765
284.021
286.291
288.57
290.861
293.162
295.476
297.802
300.141
302.491
304.856
307.233
309.624
312.029
314.448
316.882
319.331
321.795
324.274
326.769
329.28
331.804
334.343
336.877
339.256
341.616
343.973
346.328
348.684
351.043
353.408
355.778
358.155
360.534
362.922
365.314
367.71
370.112
372.516
374.922
377.33
379.744
382.162
384.582
387.004
389.43
391.858
394.287
396.719
399.153
401.588
404.025
406.464
408.903
411.343
413.783
416.224
418.665
421.106
423.546
425.986
428.425
430.863
433.299
435.733
438.165
440.595
443.022
445.446
447.865
450.282
452.693
455.1
457.502
459.9
462.291
464.675
467.052
469.42
471.78
474.13
476.47
478.8
481.118
483.424
485.717
487.996
490.261
492.509
494.74
496.952
499.144
501.314
503.461
505.584
507.68
509.749
511.788
513.798
515.775
517.718
519.622
521.487
523.309
525.088
526.819
528.501
530.13
531.705
533.217
534.665
536.04
537.343
538.562
539.699
540.746
541.703
542.567
543.346
544.045
544.469
545.449
547.822
)
;

boundaryField
{
    sideLeft
    {
        type            symmetryPlane;
        value           uniform 0;
    }
    sideRight
    {
        type            calculated;
        value           uniform 2289.63;
    }
    topbottom
    {
        type            empty;
        value           nonuniform 0();
    }
    frontback
    {
        type            empty;
        value           nonuniform 0();
    }
}


// ************************************************************************* //
