/*--------------------------------*- C++ -*----------------------------------*\
| =========                 |                                                 |
| \\      /  F ield         | OpenFOAM: The Open Source CFD Toolbox           |
|  \\    /   O peration     | Version:  2.4.0                                 |
|   \\  /    A nd           | Web:      www.OpenFOAM.org                      |
|    \\/     M anipulation  |                                                 |
\*---------------------------------------------------------------------------*/
FoamFile
{
    version     2.0;
    format      ascii;
    class       volScalarField;
    location    "0.09";
    object      pMean;
}
// * * * * * * * * * * * * * * * * * * * * * * * * * * * * * * * * * * * * * //

dimensions      [1 -1 -2 0 0 0 0];

internalField   nonuniform List<scalar> 
1000
(
5e+06
5e+06
5e+06
5e+06
5e+06
5e+06
5e+06
5e+06
5e+06
5e+06
5e+06
5e+06
5e+06
5e+06
5e+06
5e+06
5e+06
5e+06
5e+06
5e+06
5e+06
5e+06
5e+06
5e+06
5e+06
5e+06
5e+06
5e+06
5e+06
5e+06
5e+06
5e+06
5e+06
5e+06
5e+06
5e+06
5e+06
5e+06
5e+06
5e+06
5e+06
5e+06
5e+06
5e+06
5e+06
5e+06
5e+06
5e+06
5e+06
5e+06
5e+06
5e+06
5e+06
5e+06
5e+06
5e+06
5e+06
5e+06
5e+06
5e+06
5e+06
5e+06
5e+06
5e+06
5e+06
5e+06
5e+06
5e+06
5e+06
5e+06
5e+06
5e+06
5e+06
5e+06
5e+06
5e+06
5e+06
5e+06
5e+06
5e+06
5e+06
5e+06
5e+06
5e+06
5e+06
5e+06
5e+06
5e+06
5e+06
5e+06
5e+06
5e+06
5e+06
5e+06
5e+06
5e+06
5e+06
5e+06
5e+06
5e+06
5e+06
5e+06
5e+06
5e+06
5e+06
5e+06
5e+06
5e+06
5e+06
5e+06
5e+06
5e+06
5e+06
5e+06
5e+06
5e+06
5e+06
5e+06
5e+06
5e+06
5e+06
5e+06
5e+06
5e+06
5e+06
5e+06
5e+06
5e+06
5e+06
5e+06
5e+06
5e+06
5e+06
5e+06
5e+06
5e+06
5e+06
5e+06
5e+06
5e+06
5e+06
5e+06
5e+06
5e+06
5e+06
5e+06
5e+06
5e+06
5e+06
5e+06
5e+06
5e+06
5e+06
5e+06
5e+06
5e+06
5e+06
5e+06
5e+06
5e+06
5e+06
5e+06
5e+06
5e+06
5e+06
5e+06
5e+06
5e+06
5e+06
5e+06
5e+06
5e+06
5e+06
5e+06
5e+06
5e+06
5e+06
5e+06
5e+06
5e+06
5e+06
5e+06
5e+06
5e+06
5e+06
5e+06
5e+06
5e+06
5e+06
5e+06
5e+06
5e+06
5e+06
5e+06
5e+06
5e+06
5e+06
5e+06
5e+06
5e+06
5e+06
5e+06
5e+06
5e+06
5e+06
5e+06
5e+06
5e+06
5e+06
5e+06
5e+06
5e+06
5e+06
5e+06
5e+06
5e+06
5e+06
5e+06
5e+06
5e+06
5e+06
5e+06
5e+06
5e+06
5e+06
5e+06
5e+06
5e+06
5e+06
5e+06
5e+06
5e+06
5e+06
5e+06
5e+06
5e+06
5e+06
5e+06
5e+06
5e+06
5e+06
5e+06
5e+06
5e+06
5e+06
5e+06
5e+06
5e+06
5e+06
5e+06
5e+06
5e+06
5e+06
5e+06
5e+06
5e+06
5e+06
5e+06
5e+06
5e+06
5e+06
5e+06
5e+06
5e+06
5e+06
5e+06
5e+06
5e+06
5e+06
5e+06
5e+06
5e+06
5e+06
5e+06
5e+06
5e+06
5e+06
5e+06
5e+06
5e+06
5e+06
5e+06
5e+06
5e+06
5e+06
5e+06
5e+06
5e+06
5e+06
5e+06
5e+06
5e+06
5e+06
5e+06
5e+06
5e+06
5e+06
5e+06
5e+06
5e+06
5e+06
5e+06
5e+06
5e+06
5e+06
5e+06
5e+06
5e+06
5e+06
5e+06
5e+06
5e+06
5e+06
5e+06
5e+06
5e+06
5e+06
5e+06
5e+06
5e+06
5e+06
5e+06
5e+06
5e+06
5e+06
5e+06
5e+06
5e+06
5e+06
5e+06
5e+06
5e+06
5e+06
5e+06
5e+06
5e+06
5e+06
5e+06
5e+06
5e+06
5e+06
5e+06
5e+06
5e+06
5e+06
5e+06
5e+06
5e+06
5e+06
5e+06
5e+06
5e+06
5e+06
5e+06
5e+06
5e+06
5e+06
5e+06
5e+06
5e+06
5e+06
5e+06
5e+06
5e+06
5e+06
5e+06
5e+06
5e+06
5e+06
5e+06
5e+06
5e+06
5e+06
5e+06
5e+06
5e+06
5e+06
5e+06
5e+06
5e+06
5e+06
5e+06
5e+06
5e+06
5e+06
5e+06
5e+06
5e+06
5e+06
5e+06
5e+06
5e+06
5e+06
5e+06
5e+06
5e+06
5e+06
5e+06
5e+06
5e+06
5e+06
5e+06
5e+06
5e+06
5e+06
5e+06
5e+06
5e+06
5e+06
5e+06
5e+06
5e+06
5e+06
5e+06
5e+06
5e+06
5e+06
5e+06
5e+06
5e+06
5e+06
5e+06
5e+06
5e+06
5e+06
5e+06
5e+06
5e+06
5e+06
5e+06
5e+06
5e+06
5e+06
5e+06
5e+06
5e+06
5e+06
5e+06
5e+06
5e+06
5e+06
5e+06
5e+06
5e+06
5e+06
5e+06
5e+06
5e+06
5e+06
5e+06
5e+06
5e+06
5e+06
5e+06
5e+06
5e+06
5e+06
5e+06
5e+06
5e+06
5e+06
5e+06
5e+06
5e+06
5e+06
5e+06
5e+06
5e+06
5e+06
5e+06
5e+06
5e+06
5e+06
5e+06
5e+06
5e+06
5e+06
5e+06
5e+06
5e+06
5e+06
5e+06
5e+06
5e+06
5e+06
5e+06
5e+06
5e+06
5e+06
5e+06
5e+06
5e+06
5e+06
5e+06
5e+06
5e+06
5e+06
5e+06
5e+06
5e+06
5e+06
5e+06
5e+06
5e+06
5e+06
5e+06
5e+06
5e+06
5e+06
5e+06
5e+06
5e+06
5e+06
5e+06
5e+06
5e+06
5e+06
5e+06
5e+06
5e+06
5e+06
5e+06
5e+06
5e+06
5e+06
5e+06
5e+06
5e+06
5e+06
5e+06
5e+06
5e+06
5e+06
5e+06
5e+06
5e+06
5e+06
5e+06
5e+06
5e+06
5e+06
5e+06
5e+06
5e+06
5e+06
5e+06
5e+06
5e+06
5e+06
5e+06
5e+06
5e+06
5e+06
5e+06
5e+06
5e+06
5e+06
5e+06
5e+06
5e+06
5e+06
5e+06
5e+06
5e+06
5e+06
5e+06
5e+06
5e+06
5e+06
5e+06
5e+06
5e+06
5e+06
5e+06
5e+06
5e+06
5e+06
5e+06
5e+06
5e+06
5e+06
5e+06
5e+06
5e+06
5e+06
5e+06
5e+06
5e+06
5e+06
5e+06
5e+06
5e+06
5e+06
5e+06
5e+06
5e+06
5e+06
5e+06
5e+06
5e+06
5e+06
5e+06
5e+06
5e+06
5e+06
5e+06
5e+06
5e+06
5e+06
5e+06
5e+06
5e+06
5e+06
5e+06
5e+06
5e+06
5e+06
5e+06
5e+06
5e+06
5e+06
5e+06
5e+06
5e+06
5e+06
5e+06
5e+06
5e+06
5e+06
5e+06
5e+06
5e+06
5e+06
5e+06
5e+06
5e+06
5e+06
5e+06
5e+06
5e+06
5e+06
5e+06
5e+06
5e+06
5e+06
5e+06
5e+06
5e+06
5e+06
5e+06
5e+06
5e+06
5e+06
5e+06
5e+06
5e+06
5e+06
5e+06
5e+06
5e+06
5e+06
5e+06
5e+06
5e+06
5e+06
5e+06
5e+06
5e+06
5e+06
5e+06
5e+06
5e+06
5e+06
5e+06
5e+06
5e+06
5e+06
5e+06
5e+06
5e+06
5e+06
5e+06
5e+06
5e+06
5e+06
5e+06
5e+06
5e+06
5e+06
5e+06
5e+06
5e+06
5e+06
5e+06
5e+06
5e+06
5e+06
5e+06
5e+06
5e+06
5e+06
5e+06
5e+06
4.99999e+06
4.99999e+06
4.99999e+06
4.99999e+06
4.99998e+06
4.99998e+06
4.99997e+06
4.99997e+06
4.99996e+06
4.99994e+06
4.99993e+06
4.99991e+06
4.99989e+06
4.99987e+06
4.99983e+06
4.9998e+06
4.99975e+06
4.9997e+06
4.99964e+06
4.99957e+06
4.99949e+06
4.9994e+06
4.99929e+06
4.99917e+06
4.99904e+06
4.99888e+06
4.99871e+06
4.99852e+06
4.9983e+06
4.99807e+06
4.99781e+06
4.99752e+06
4.99721e+06
4.99687e+06
4.99651e+06
4.99611e+06
4.99569e+06
4.99523e+06
4.99475e+06
4.99423e+06
4.99367e+06
4.99309e+06
4.99247e+06
4.99181e+06
4.99113e+06
4.9904e+06
4.98964e+06
4.98885e+06
4.98802e+06
4.98716e+06
4.98625e+06
4.98532e+06
4.98434e+06
4.98333e+06
4.98228e+06
4.9812e+06
4.98008e+06
4.97893e+06
4.97773e+06
4.97651e+06
4.97524e+06
4.97394e+06
4.9726e+06
4.97122e+06
4.96981e+06
4.96836e+06
4.96688e+06
4.96536e+06
4.9638e+06
4.9622e+06
4.96057e+06
4.95891e+06
4.9572e+06
4.95546e+06
4.95368e+06
4.95187e+06
4.95001e+06
4.94813e+06
4.9462e+06
4.94424e+06
4.94224e+06
4.9402e+06
4.93813e+06
4.93602e+06
4.93387e+06
4.93169e+06
4.92947e+06
4.92721e+06
4.92491e+06
4.92258e+06
4.92021e+06
4.9178e+06
4.91535e+06
4.91287e+06
4.91035e+06
4.90779e+06
4.90519e+06
4.90256e+06
4.89988e+06
4.89717e+06
4.89442e+06
4.89164e+06
4.88881e+06
4.88595e+06
4.88305e+06
4.88011e+06
4.87713e+06
4.87411e+06
4.87105e+06
4.86796e+06
4.86482e+06
4.86165e+06
4.85844e+06
4.85519e+06
4.8519e+06
4.84857e+06
4.8452e+06
4.84179e+06
4.83834e+06
4.83485e+06
4.83132e+06
4.82776e+06
4.82415e+06
4.8205e+06
4.81681e+06
4.81308e+06
4.80931e+06
4.8055e+06
4.80165e+06
4.79776e+06
4.79383e+06
4.78986e+06
4.78585e+06
4.78179e+06
4.77769e+06
4.77355e+06
4.76938e+06
4.76515e+06
4.76089e+06
4.75658e+06
4.75224e+06
4.74785e+06
4.74341e+06
4.73894e+06
4.73442e+06
4.72986e+06
4.72525e+06
4.72061e+06
4.71591e+06
4.71118e+06
4.7064e+06
4.70158e+06
4.69671e+06
4.6918e+06
4.68684e+06
4.68184e+06
4.67679e+06
4.6717e+06
4.66657e+06
4.66138e+06
4.65615e+06
4.65088e+06
4.64556e+06
4.64019e+06
4.63478e+06
4.62932e+06
4.62381e+06
4.61825e+06
4.61265e+06
4.607e+06
4.6013e+06
4.59555e+06
4.58975e+06
4.58391e+06
4.57801e+06
4.57207e+06
4.56607e+06
4.56003e+06
4.55393e+06
4.54778e+06
4.54158e+06
4.53533e+06
4.52903e+06
4.52268e+06
4.51627e+06
4.50981e+06
4.5033e+06
4.49673e+06
4.49011e+06
4.48343e+06
4.4767e+06
4.46991e+06
4.46307e+06
4.45617e+06
4.44922e+06
4.44221e+06
4.43515e+06
4.42804e+06
4.42089e+06
4.4137e+06
4.40648e+06
4.3992e+06
4.39188e+06
4.38449e+06
4.37706e+06
4.36956e+06
4.36202e+06
4.35441e+06
4.34676e+06
4.33905e+06
4.33129e+06
4.32347e+06
4.3156e+06
4.30768e+06
4.2997e+06
4.29167e+06
4.28358e+06
4.27544e+06
4.26724e+06
4.25899e+06
4.25068e+06
4.24232e+06
4.23391e+06
4.22544e+06
4.21691e+06
4.20833e+06
4.1997e+06
4.19101e+06
4.18226e+06
4.17346e+06
4.1646e+06
4.15569e+06
4.14672e+06
4.1377e+06
4.12862e+06
4.11948e+06
4.11029e+06
4.10105e+06
4.09175e+06
4.08239e+06
4.07298e+06
4.06351e+06
4.05399e+06
4.04441e+06
4.03478e+06
4.02509e+06
4.01534e+06
4.00554e+06
3.99569e+06
3.98578e+06
3.97581e+06
3.96579e+06
3.95572e+06
3.94559e+06
3.93541e+06
3.92518e+06
3.91489e+06
3.90454e+06
3.89415e+06
3.8837e+06
3.8732e+06
3.86265e+06
3.85205e+06
3.84139e+06
3.83069e+06
3.81993e+06
3.80913e+06
3.79828e+06
3.78738e+06
3.77643e+06
3.76544e+06
3.7544e+06
3.74332e+06
3.7322e+06
3.72103e+06
3.70982e+06
3.69857e+06
3.68729e+06
3.67597e+06
3.66461e+06
3.65322e+06
3.6418e+06
3.63035e+06
3.61887e+06
3.60737e+06
3.59584e+06
3.58429e+06
3.57273e+06
3.56115e+06
3.54956e+06
3.53796e+06
3.52635e+06
3.51473e+06
3.50311e+06
3.49149e+06
3.47969e+06
3.46776e+06
)
;

boundaryField
{
    sideLeft
    {
        type            symmetryPlane;
    }
    sideRight
    {
        type            calculated;
        value           uniform 3.46102e+06;
    }
    topbottom
    {
        type            empty;
    }
    frontback
    {
        type            empty;
    }
}


// ************************************************************************* //
