/*--------------------------------*- C++ -*----------------------------------*\
| =========                 |                                                 |
| \\      /  F ield         | OpenFOAM: The Open Source CFD Toolbox           |
|  \\    /   O peration     | Version:  2.4.0                                 |
|   \\  /    A nd           | Web:      www.OpenFOAM.org                      |
|    \\/     M anipulation  |                                                 |
\*---------------------------------------------------------------------------*/
FoamFile
{
    version     2.0;
    format      ascii;
    class       volScalarField;
    location    "0.09";
    object      T.air;
}
// * * * * * * * * * * * * * * * * * * * * * * * * * * * * * * * * * * * * * //

dimensions      [0 0 0 1 0 0 0];

internalField   nonuniform List<scalar> 
1000
(
300
300
300
300
300
300
300
300
300
300
300
300
300
300
300
300
300
300
300
300
300
300
300
300
300
300
300
300
300
300
300
300
300
300
300
300
300
300
300
300
300
300
300
300
300
300
300
300
300
300
300
300
300
300
300
300
300
300
300
300
300
300
300
300
300
300
300
300
300
300
300
300
300
300
300
300
300
300
300
300
300
300
300
300
300
300
300
300
300
300
300
300
300
300
300
300
300
300
300
300
300
300
300
300
300
300
300
300
300
300
300
300
300
300
300
300
300
300
300
300
300
300
300
300
300
300
300
300
300
300
300
300
300
300
300
300
300
300
300
300
300
300
300
300
300
300
300
300
300
300
300
300
300
300
300
300
300
300
300
300
300
300
300
300
300
300
300
300
300
300
300
300
300
300
300
300
300
300
300
300
300
300
300
300
300
300
300
300
300
300
300
300
300
300
300
300
300
300
300
300
300
300
300
300
300
300
300
300
300
300
300
300
300
300
300
300
300
300
300
300
300
300
300
300
300
300
300
300
300
300
300
300
300
300
300
300
300
300
300
300
300
300
300
300
300
300
300
300
300
300
300
300
300
300
300
300
300
300
300
300
300
300
300
300
300
300
300
300
300
300
300
300
300
300
300
300
300
300
300
300
300
300
300
300
300
300
300
300
300
300
300
300
300
300
300
300
300
300
300
300
300
300
300
300
300
300
300
300
300
300
300
300
300
300
300
300
300
300
300
300
300
300
300
300
300
300
300
300
300
300
300
300
300
300
300
300
300
300
300
300
300
300
300
300
300
300
300
300
300
300
300
300
300
300
300
300
300
300
300
300
300
300
300
300
300
300
300
300
300
300
300
300
300
300
300
300
300
300
300
300
300
300
300
300
300
300
300
300
300
300
300
300
300
300
300
300
300
300
300
300
300
300
300
300
300
300
300
300
300
300
300
300
300
300
300
300
300
300
300
300
300
300
300
300
300
300
300
300
300
300
300
300
300
300
300
300
300
300
300
300
300
300
300
300
300
300
300
300
300
300
300
300
300
300
300
300
300
300
300
300
300
300
300
300
300
300
300
300
300
300
300
300
300
300
300
300
300
300
300
300
300
300
300
300
300
300
300
300
300
300
300
300
300
300
300
300
300
300
300
300
300
300
300
300
300
300
300
300
300
300
300
300
300
300
300
300
300
300
300
300
300
300
300
300
300
300
300
300
300
300
300
300
300
300
300
300
300
300
300
300
300
300
300
300
300
300
300
300
300
300
300
300
300
300
300
300
300
300
300
300
300
300
300
300
300
300
300
300
300
300
300
300
300
300
300
300
300
300
300
300
300
300
300
300
300
300
300
300
300
300
300
300
300
300
300
300
300
300
300
300
300
300
300
300
300
300
300
300
300
300
300
300
300
300
300
300
300
300
300
300
300
300
300
300
300
300
300
300
300
300
300
300
300
300
300
300
300
300
300
300
300
300
300
300
300
300
300
300
300
300
300
300
300
300
300
300
300
300
300
300
300
300
300
300
300
300
300
300
300
300
300
300
300
300
300
300
300
300
300
300
300
300
300
300
300
300
300
300
300
300
300
300
300
300
300
300
300
300
299.999
299.999
299.999
299.998
299.998
299.997
299.997
299.996
299.994
299.993
299.991
299.989
299.986
299.982
299.978
299.973
299.967
299.961
299.953
299.943
299.933
299.921
299.907
299.891
299.874
299.854
299.833
299.809
299.783
299.755
299.725
299.692
299.657
299.62
299.58
299.539
299.495
299.449
299.401
299.352
299.3
299.247
299.193
299.137
299.08
299.021
298.962
298.901
298.839
298.777
298.714
298.65
298.586
298.521
298.456
298.39
298.324
298.257
298.19
298.123
298.056
297.988
297.92
297.852
297.784
297.715
297.646
297.577
297.508
297.438
297.369
297.299
297.229
297.159
297.088
297.018
296.947
296.876
296.805
296.733
296.661
296.59
296.518
296.445
296.373
296.3
296.227
296.154
296.08
296.007
295.933
295.859
295.785
295.71
295.635
295.56
295.485
295.409
295.333
295.257
295.181
295.104
295.027
294.95
294.873
294.795
294.717
294.639
294.561
294.482
294.403
294.324
294.245
294.165
294.085
294.004
293.924
293.843
293.762
293.68
293.599
293.517
293.435
293.352
293.269
293.186
293.103
293.019
292.935
292.851
292.767
292.682
292.597
292.511
292.426
292.34
292.253
292.167
292.08
291.992
291.904
291.816
291.728
291.639
291.55
291.461
291.371
291.281
291.191
291.1
291.008
290.917
290.825
290.732
290.639
290.546
290.453
290.359
290.264
290.169
290.074
289.978
289.882
289.786
289.687
289.593
289.49
289.398
289.289
289.203
289.086
289.006
288.882
288.806
288.677
288.603
288.469
288.398
288.259
288.189
288.049
287.978
287.836
287.764
287.621
287.548
287.402
287.329
287.181
287.107
286.957
286.882
286.731
286.654
286.501
286.423
286.267
286.189
286.031
285.951
285.792
285.711
285.538
285.338
285.158
284.946
284.779
284.548
284.398
284.145
284.009
283.74
283.605
283.333
283.196
282.919
282.779
282.499
282.357
282.072
281.928
281.639
281.493
281.2
281.052
280.754
280.603
280.301
280.148
279.841
279.686
279.375
279.218
278.902
278.743
278.423
278.262
277.937
277.773
277.444
277.279
276.945
276.777
276.44
276.27
275.928
275.756
275.41
275.236
274.886
274.709
274.356
274.177
273.82
273.639
273.278
273.095
272.73
272.545
272.175
271.989
271.615
271.426
271.048
270.857
270.475
270.282
269.896
269.702
269.313
269.117
268.725
268.528
268.133
267.935
267.539
267.34
266.942
266.743
266.345
266.146
265.747
265.549
265.151
264.954
264.558
264.362
263.97
263.775
263.389
263.195
262.816
262.626
262.254
262.069
261.706
261.526
261.17
260.994
260.549
260.597
260.648
)
;

boundaryField
{
    sideLeft
    {
        type            symmetryPlane;
    }
    sideRight
    {
        type            zeroGradient;
    }
    topbottom
    {
        type            empty;
    }
    frontback
    {
        type            empty;
    }
}


// ************************************************************************* //
