/*--------------------------------*- C++ -*----------------------------------*\
| =========                 |                                                 |
| \\      /  F ield         | OpenFOAM: The Open Source CFD Toolbox           |
|  \\    /   O peration     | Version:  2.4.0                                 |
|   \\  /    A nd           | Web:      www.OpenFOAM.org                      |
|    \\/     M anipulation  |                                                 |
\*---------------------------------------------------------------------------*/
FoamFile
{
    version     2.0;
    format      ascii;
    class       volScalarField;
    location    "0.09";
    object      T.water;
}
// * * * * * * * * * * * * * * * * * * * * * * * * * * * * * * * * * * * * * //

dimensions      [0 0 0 1 0 0 0];

internalField   nonuniform List<scalar> 
1000
(
300
300
300
300
300
300
300
300
300
300
300
300
300
300
300
300
300
300
300
300
300
300
300
300
300
300
300
300
300
300
300
300
300
300
300
300
300
300
300
300
300
300
300
300
300
300
300
300
300
300
300
300
300
300
300
300
300
300
300
300
300
300
300
300
300
300
300
300
300
300
300
300
300
300
300
300
300
300
300
300
300
300
300
300
300
300
300
300
300
300
300
300
300
300
300
300
300
300
300
300
300
300
300
300
300
300
300
300
300
300
300
300
300
300
300
300
300
300
300
300
300
300
300
300
300
300
300
300
300
300
300
300
300
300
300
300
300
300
300
300
300
300
300
300
300
300
300
300
300
300
300
300
300
300
300
300
300
300
300
300
300
300
300
300
300
300
300
300
300
300
300
300
300
300
300
300
300
300
300
300
300
300
300
300
300
300
300
300
300
300
300
300
300
300
300
300
300
300
300
300
300
300
300
300
300
300
300
300
300
300
300
300
300
300
300
300
300
300
300
300
300
300
300
300
300
300
300
300
300
300
300
300
300
300
300
300
300
300
300
300
300
300
300
300
300
300
300
300
300
300
300
300
300
300
300
300
300
300
300
300
300
300
300
300
300
300
300
300
300
300
300
300
300
300
300
300
300
300
300
300
300
300
300
300
300
300
300
300
300
300
300
300
300
300
300
300
300
300
300
300
300
300
300
300
300
300
300
300
300
300
300
300
300
300
300
300
300
300
300
300
300
300
300
300
300
300
300
300
300
300
300
300
300
300
300
300
300
300
300
300
300
300
300
300
300
300
300
300
300
300
300
300
300
300
300
300
300
300
300
300
300
300
300
300
300
300
300
300
300
300
300
300
300
300
300
300
300
300
300
300
300
300
300
300
300
300
300
300
300
300
300
300
300
300
300
300
300
300
300
300
300
300
300
300
300
300
300
300
300
300
300
300
300
300
300
300
300
300
300
300
300
300
300
300
300
300
300
300
300
300
300
300
300
300
300
300
300
300
300
300
300
300
300
300
300
300
300
300
300
300
300
300
300
300
300
300
300
300
300
300
300
300
300
300
300
300
300
300
300
300
300
300
300
300
300
300
300
300
300
300
300
300
300
300
300
300
300
300
300
300
300
300
300
300
300
300
300
300
300
300
300
300
300
300
300
300
300
300
300
300
300
300
300
300
300
300
300
300
300
300
300
300
300
300
300
300
300
300
300
300
300
300
300
300
300
300
300
300
300
300
300
300
300
300
300
300
300
300
300
300
300
300
300
300
300
300
300
300
300
300
300
300
300
300
300
300
300
300
300
300
300
300
300
300
300
300
300
300
300
300
300
300
300
300
300
300
300
300
300
300
300
300
300
300
300
300
300
300
300
300
300
300
300
300
300
300
300
300
300
300
300
300
300
300
300
300
300
300
300
300
300
300
300
300
300
300
300
300
300
300
300
300
300
300
300
300
300
300
300
300
300
300
300
300
300
300
300
300
300
300
300
300
300
300
300
300
300
300
300
300
300
300
300
300
300
300
300
300
300
300
300
300
300
300
300
300
300
300
300
300
300
300
300
300
300
300
300
300
300
300
300
300
300
300
300
300
300
299.999
299.999
299.999
299.999
299.998
299.998
299.997
299.996
299.995
299.994
299.992
299.99
299.988
299.985
299.981
299.977
299.972
299.966
299.958
299.95
299.94
299.929
299.917
299.902
299.886
299.868
299.848
299.826
299.802
299.775
299.747
299.716
299.682
299.647
299.609
299.569
299.526
299.482
299.436
299.388
299.338
299.286
299.233
299.178
299.122
299.064
299.006
298.946
298.885
298.824
298.761
298.698
298.634
298.57
298.505
298.44
298.374
298.308
298.242
298.175
298.108
298.04
297.973
297.905
297.837
297.768
297.7
297.631
297.562
297.493
297.424
297.354
297.284
297.214
297.144
297.074
297.003
296.933
296.862
296.791
296.719
296.648
296.576
296.504
296.432
296.359
296.287
296.214
296.141
296.067
295.994
295.92
295.846
295.772
295.697
295.622
295.547
295.472
295.397
295.321
295.245
295.169
295.092
295.015
294.938
294.861
294.783
294.706
294.627
294.549
294.47
294.392
294.312
294.233
294.153
294.073
293.993
293.913
293.832
293.751
293.669
293.588
293.506
293.424
293.341
293.259
293.176
293.092
293.009
292.925
292.841
292.756
292.672
292.586
292.501
292.415
292.329
292.243
292.157
292.07
291.982
291.895
291.807
291.718
291.63
291.541
291.451
291.362
291.272
291.181
291.09
290.999
290.907
290.816
290.723
290.63
290.537
290.444
290.35
290.255
290.16
290.065
289.97
289.873
289.777
289.678
289.584
289.481
289.39
289.281
289.195
289.078
288.998
288.874
288.798
288.669
288.595
288.461
288.39
288.251
288.182
288.041
287.97
287.828
287.756
287.613
287.54
287.395
287.321
287.174
287.099
286.95
286.874
286.723
286.647
286.493
286.416
286.26
286.181
286.024
285.944
285.785
285.705
285.532
285.331
285.152
284.939
284.773
284.542
284.392
284.138
284.002
283.733
283.598
283.327
283.189
282.912
282.773
282.492
282.351
282.066
281.922
281.633
281.487
281.194
281.045
280.747
280.597
280.295
280.142
279.835
279.68
279.369
279.212
278.896
278.737
278.417
278.256
277.931
277.768
277.439
277.273
276.94
276.772
276.434
276.264
275.922
275.75
275.404
275.23
274.88
274.704
274.35
274.172
273.814
273.634
273.272
273.09
272.724
272.54
272.17
271.984
271.609
271.421
271.042
270.852
270.469
270.277
269.891
269.697
269.307
269.112
268.72
268.523
268.128
267.93
267.534
267.335
266.937
266.738
266.34
266.141
265.742
265.544
265.147
264.949
264.553
264.357
263.965
263.77
263.384
263.191
262.811
262.621
262.25
262.065
261.701
261.522
261.166
260.989
260.545
260.595
260.647
)
;

boundaryField
{
    sideLeft
    {
        type            symmetryPlane;
    }
    sideRight
    {
        type            zeroGradient;
    }
    topbottom
    {
        type            empty;
    }
    frontback
    {
        type            empty;
    }
}


// ************************************************************************* //
