/*--------------------------------*- C++ -*----------------------------------*\
| =========                 |                                                 |
| \\      /  F ield         | OpenFOAM: The Open Source CFD Toolbox           |
|  \\    /   O peration     | Version:  2.4.0                                 |
|   \\  /    A nd           | Web:      www.OpenFOAM.org                      |
|    \\/     M anipulation  |                                                 |
\*---------------------------------------------------------------------------*/
FoamFile
{
    version     2.0;
    format      ascii;
    class       volVectorField;
    location    "0.09";
    object      U.airMean;
}
// * * * * * * * * * * * * * * * * * * * * * * * * * * * * * * * * * * * * * //

dimensions      [0 1 -1 0 0 0 0];

internalField   nonuniform List<vector> 
1000
(
(-7.79855e-14 0 0)
(-4.23248e-14 0 0)
(-8.51466e-14 0 0)
(-5.58962e-14 0 0)
(-1.14871e-13 0 0)
(-4.97857e-14 0 0)
(-1.05918e-13 0 0)
(-8.03546e-14 0 0)
(-9.75496e-14 0 0)
(-9.29391e-14 0 0)
(-1.15826e-13 0 0)
(-1.33195e-13 0 0)
(-8.78707e-14 0 0)
(-1.50958e-13 0 0)
(-6.28912e-14 0 0)
(-1.22489e-13 0 0)
(-5.55883e-14 0 0)
(-1.00707e-13 0 0)
(-4.81198e-14 0 0)
(-1.19931e-13 0 0)
(-3.81249e-14 0 0)
(-1.07986e-13 0 0)
(-8.59916e-14 0 0)
(-1.12747e-13 0 0)
(-1.36369e-13 0 0)
(-1.14942e-13 0 0)
(-1.21045e-13 0 0)
(-1.06171e-13 0 0)
(-1.60961e-13 0 0)
(-8.3426e-14 0 0)
(-1.35098e-13 0 0)
(-1.26958e-13 0 0)
(-1.03163e-13 0 0)
(-1.14153e-13 0 0)
(-7.18677e-14 0 0)
(-1.6179e-13 0 0)
(-1.98247e-14 0 0)
(-1.21676e-13 0 0)
(-4.8483e-14 0 0)
(-1.19908e-13 0 0)
(-4.38566e-14 0 0)
(-1.05792e-13 0 0)
(-7.28781e-14 0 0)
(-8.8794e-14 0 0)
(-4.44801e-14 0 0)
(-5.88487e-14 0 0)
(-6.00171e-14 0 0)
(-7.24833e-14 0 0)
(-7.53886e-14 0 0)
(-7.20965e-14 0 0)
(-1.06944e-13 0 0)
(-5.30541e-14 0 0)
(-8.12227e-14 0 0)
(-2.83508e-14 0 0)
(-6.40829e-14 0 0)
(-3.53693e-14 0 0)
(-4.71564e-14 0 0)
(-4.17167e-14 0 0)
(-6.32856e-14 0 0)
(-3.09403e-14 0 0)
(-6.33802e-14 0 0)
(-1.88706e-15 0 0)
(-2.54452e-14 0 0)
(-2.02504e-14 0 0)
(-1.15345e-14 0 0)
(-5.78692e-15 0 0)
(1.5016e-14 0 0)
(1.22055e-14 0 0)
(-8.0448e-15 0 0)
(1.98871e-14 0 0)
(-1.71633e-14 0 0)
(-5.90561e-15 0 0)
(-5.17667e-14 0 0)
(-9.8925e-15 0 0)
(-3.3435e-14 0 0)
(-6.56697e-14 0 0)
(-2.59272e-14 0 0)
(-8.55412e-14 0 0)
(-6.58752e-14 0 0)
(-5.23275e-14 0 0)
(-4.94302e-14 0 0)
(-3.56851e-14 0 0)
(-4.38641e-14 0 0)
(-2.64876e-14 0 0)
(-7.76385e-14 0 0)
(-4.51117e-14 0 0)
(-1.0325e-13 0 0)
(-5.29356e-14 0 0)
(-9.78812e-14 0 0)
(-1.11634e-13 0 0)
(-8.14994e-14 0 0)
(-9.11231e-14 0 0)
(-1.00873e-13 0 0)
(-7.58939e-14 0 0)
(-9.6768e-14 0 0)
(-4.3975e-14 0 0)
(-1.23981e-13 0 0)
(-3.98539e-14 0 0)
(-1.18637e-13 0 0)
(-9.11233e-14 0 0)
(-1.22861e-13 0 0)
(-1.21613e-13 0 0)
(-1.32445e-13 0 0)
(-1.2969e-13 0 0)
(-1.35027e-13 0 0)
(-1.61925e-13 0 0)
(-1.25072e-13 0 0)
(-1.65391e-13 0 0)
(-2.00681e-13 0 0)
(-1.59833e-13 0 0)
(-2.10802e-13 0 0)
(-1.6802e-13 0 0)
(-2.1216e-13 0 0)
(-1.87686e-13 0 0)
(-2.22589e-13 0 0)
(-1.98241e-13 0 0)
(-1.8872e-13 0 0)
(-1.5474e-13 0 0)
(-1.47501e-13 0 0)
(-1.68051e-13 0 0)
(-1.26185e-13 0 0)
(-1.36306e-13 0 0)
(-9.26864e-14 0 0)
(-1.34711e-13 0 0)
(-1.00321e-13 0 0)
(-1.36969e-13 0 0)
(-1.04908e-13 0 0)
(-1.51938e-13 0 0)
(-9.31525e-14 0 0)
(-1.84843e-13 0 0)
(-1.03045e-13 0 0)
(-1.94783e-13 0 0)
(-1.45306e-13 0 0)
(-1.59572e-13 0 0)
(-1.09692e-13 0 0)
(-1.46474e-13 0 0)
(-1.19095e-13 0 0)
(-1.2215e-13 0 0)
(-8.89522e-14 0 0)
(-1.16268e-13 0 0)
(-1.07079e-13 0 0)
(-9.24023e-14 0 0)
(-1.46151e-13 0 0)
(-9.19918e-14 0 0)
(-1.5339e-13 0 0)
(-1.01158e-13 0 0)
(-1.26563e-13 0 0)
(-1.25056e-13 0 0)
(-1.17129e-13 0 0)
(-1.32516e-13 0 0)
(-1.38461e-13 0 0)
(-1.54314e-13 0 0)
(-1.48511e-13 0 0)
(-1.62556e-13 0 0)
(-1.31861e-13 0 0)
(-1.3655e-13 0 0)
(-1.33637e-13 0 0)
(-1.33535e-13 0 0)
(-1.37214e-13 0 0)
(-1.18566e-13 0 0)
(-1.47572e-13 0 0)
(-6.94676e-14 0 0)
(-1.1086e-13 0 0)
(-4.80171e-14 0 0)
(-8.56202e-14 0 0)
(-3.35851e-14 0 0)
(-8.95283e-14 0 0)
(-3.74616e-14 0 0)
(-9.70206e-14 0 0)
(-7.46464e-14 0 0)
(-7.69282e-14 0 0)
(-5.84856e-14 0 0)
(-9.58442e-14 0 0)
(-6.83938e-14 0 0)
(-1.1281e-13 0 0)
(-5.81464e-14 0 0)
(-1.18495e-13 0 0)
(-7.78125e-14 0 0)
(-1.31632e-13 0 0)
(-1.26792e-13 0 0)
(-9.64838e-14 0 0)
(-9.13364e-14 0 0)
(-6.76596e-14 0 0)
(-1.26397e-13 0 0)
(-5.70332e-14 0 0)
(-1.19671e-13 0 0)
(-5.63227e-14 0 0)
(-1.62706e-13 0 0)
(-3.44302e-14 0 0)
(-1.30045e-13 0 0)
(-3.29141e-14 0 0)
(-1.10244e-13 0 0)
(-4.61934e-14 0 0)
(-9.21021e-14 0 0)
(-7.83492e-14 0 0)
(-9.40916e-14 0 0)
(-9.2789e-14 0 0)
(-7.68018e-14 0 0)
(-7.51359e-14 0 0)
(-1.00747e-13 0 0)
(-6.87018e-14 0 0)
(-1.39795e-13 0 0)
(-6.08463e-14 0 0)
(-1.11863e-13 0 0)
(-8.42309e-14 0 0)
(-8.16334e-14 0 0)
(-5.26514e-14 0 0)
(-5.72934e-14 0 0)
(-7.74333e-14 0 0)
(-4.26089e-14 0 0)
(-4.14642e-14 0 0)
(-2.0819e-14 0 0)
(-4.86484e-14 0 0)
(1.0658e-14 0 0)
(-2.39451e-14 0 0)
(2.44583e-14 0 0)
(-4.95791e-15 0 0)
(9.15785e-16 0 0)
(5.51866e-15 0 0)
(2.65426e-14 0 0)
(2.51848e-14 0 0)
(1.21583e-14 0 0)
(2.92585e-14 0 0)
(3.96315e-15 0 0)
(-1.82686e-14 0 0)
(5.21837e-15 0 0)
(7.76064e-15 0 0)
(-4.24428e-14 0 0)
(1.60817e-14 0 0)
(-3.02059e-14 0 0)
(-3.12007e-14 0 0)
(-3.89298e-14 0 0)
(-4.36351e-14 0 0)
(-5.67661e-15 0 0)
(-4.46456e-14 0 0)
(3.09953e-14 0 0)
(-2.72373e-14 0 0)
(2.47031e-14 0 0)
(-3.27639e-14 0 0)
(-1.15581e-14 0 0)
(7.76062e-15 0 0)
(2.71663e-14 0 0)
(-3.29925e-14 0 0)
(8.00541e-14 0 0)
(2.21376e-14 0 0)
(5.26116e-14 0 0)
(1.83558e-14 0 0)
(5.93302e-14 0 0)
(4.31695e-14 0 0)
(7.85306e-14 0 0)
(8.28968e-14 0 0)
(9.31283e-14 0 0)
(8.36546e-14 0 0)
(3.55747e-14 0 0)
(9.11387e-14 0 0)
(2.57929e-14 0 0)
(9.49362e-14 0 0)
(4.80328e-14 0 0)
(7.51594e-14 0 0)
(2.19719e-14 0 0)
(8.50437e-14 0 0)
(4.77014e-14 0 0)
(7.95964e-14 0 0)
(6.08461e-14 0 0)
(3.39877e-14 0 0)
(5.66696e-14 0 0)
(-1.08552e-14 0 0)
(8.86991e-14 0 0)
(2.71903e-14 0 0)
(7.48753e-14 0 0)
(2.88403e-14 0 0)
(7.26095e-14 0 0)
(3.21403e-14 0 0)
(5.83908e-14 0 0)
(3.67587e-14 0 0)
(7.167e-14 0 0)
(3.12563e-14 0 0)
(1.11602e-13 0 0)
(5.9449e-14 0 0)
(1.13687e-13 0 0)
(1.00345e-13 0 0)
(1.42495e-13 0 0)
(1.40537e-13 0 0)
(7.36758e-14 0 0)
(1.69298e-13 0 0)
(1.17761e-13 0 0)
(1.37364e-13 0 0)
(1.34364e-13 0 0)
(1.39203e-13 0 0)
(1.13995e-13 0 0)
(1.29137e-13 0 0)
(1.19632e-13 0 0)
(1.41335e-13 0 0)
(9.10207e-14 0 0)
(1.55388e-13 0 0)
(1.08334e-13 0 0)
(1.33701e-13 0 0)
(1.59564e-13 0 0)
(1.78851e-13 0 0)
(1.36566e-13 0 0)
(1.8598e-13 0 0)
(1.63204e-13 0 0)
(1.62004e-13 0 0)
(1.80391e-13 0 0)
(1.21937e-13 0 0)
(1.89612e-13 0 0)
(1.32595e-13 0 0)
(1.33456e-13 0 0)
(1.21574e-13 0 0)
(9.02232e-14 0 0)
(1.04552e-13 0 0)
(7.93756e-14 0 0)
(8.84783e-14 0 0)
(7.4315e-14 0 0)
(1.0756e-13 0 0)
(9.19837e-14 0 0)
(1.05184e-13 0 0)
(8.53283e-14 0 0)
(7.90914e-14 0 0)
(1.14879e-13 0 0)
(8.78468e-14 0 0)
(7.75757e-14 0 0)
(1.09226e-13 0 0)
(7.02886e-14 0 0)
(1.21684e-13 0 0)
(6.63648e-14 0 0)
(6.44621e-14 0 0)
(7.51753e-14 0 0)
(5.73329e-14 0 0)
(5.42776e-14 0 0)
(7.95729e-14 0 0)
(8.45072e-14 0 0)
(4.20012e-14 0 0)
(9.50624e-14 0 0)
(4.84514e-14 0 0)
(9.07835e-14 0 0)
(4.02405e-14 0 0)
(2.83508e-14 0 0)
(4.20957e-14 0 0)
(4.2001e-14 0 0)
(6.39962e-14 0 0)
(3.64745e-14 0 0)
(4.92721e-14 0 0)
(8.36885e-15 0 0)
(5.08114e-14 0 0)
(-3.64742e-14 0 0)
(3.86611e-14 0 0)
(-3.46425e-14 0 0)
(3.50506e-15 0 0)
(-4.05955e-14 0 0)
(-2.68191e-14 0 0)
(-2.39137e-14 0 0)
(-2.4269e-14 0 0)
(-4.40772e-14 0 0)
(1.13676e-15 0 0)
(-1.69347e-14 0 0)
(-4.94693e-14 0 0)
(-5.86613e-15 0 0)
(-1.42818e-14 0 0)
(6.67114e-15 0 0)
(-1.20795e-15 0 0)
(-2.5248e-14 0 0)
(-4.14797e-14 0 0)
(-2.32979e-14 0 0)
(-2.03532e-14 0 0)
(-9.63295e-16 0 0)
(-6.26065e-14 0 0)
(-1.31136e-14 0 0)
(-5.43169e-14 0 0)
(-2.92744e-14 0 0)
(-3.6135e-14 0 0)
(-9.8846e-15 0 0)
(-4.88141e-14 0 0)
(-4.27128e-15 0 0)
(-3.00794e-14 0 0)
(1.90423e-14 0 0)
(-2.59732e-15 0 0)
(4.45271e-14 0 0)
(-2.17976e-14 0 0)
(5.9109e-14 0 0)
(-6.69457e-15 0 0)
(4.32481e-14 0 0)
(6.01602e-15 0 0)
(-1.10765e-14 0 0)
(3.52088e-15 0 0)
(-8.03461e-14 0 0)
(3.28819e-14 0 0)
(-5.70878e-14 0 0)
(6.56824e-15 0 0)
(-6.12959e-14 0 0)
(-2.44349e-14 0 0)
(-4.01851e-14 0 0)
(-7.42244e-16 0 0)
(-5.91721e-14 0 0)
(2.14818e-14 0 0)
(-3.36401e-14 0 0)
(2.3511e-14 0 0)
(7.81781e-16 0 0)
(6.65145e-14 0 0)
(3.65061e-14 0 0)
(5.30617e-14 0 0)
(4.19378e-14 0 0)
(2.04502e-15 0 0)
(6.35065e-14 0 0)
(2.7877e-14 0 0)
(4.09668e-14 0 0)
(5.65512e-14 0 0)
(5.37723e-14 0 0)
(1.41557e-14 0 0)
(6.19435e-14 0 0)
(2.45296e-14 0 0)
(7.20805e-14 0 0)
(2.49007e-14 0 0)
(5.65591e-14 0 0)
(3.07349e-14 0 0)
(3.1035e-14 0 0)
(2.50821e-14 0 0)
(5.1901e-14 0 0)
(-4.1961e-14 0 0)
(8.65595e-14 0 0)
(-9.47166e-16 0 0)
(4.13298e-14 0 0)
(1.90823e-14 0 0)
(7.72831e-14 0 0)
(5.13013e-14 0 0)
(3.58588e-14 0 0)
(7.19858e-14 0 0)
(3.15402e-14 0 0)
(6.30171e-14 0 0)
(3.31589e-14 0 0)
(7.73226e-14 0 0)
(6.36727e-14 0 0)
(5.31329e-14 0 0)
(9.78021e-14 0 0)
(9.51732e-14 0 0)
(6.54805e-14 0 0)
(6.987e-14 0 0)
(6.80563e-15 0 0)
(5.55564e-14 0 0)
(-2.51055e-14 0 0)
(6.71065e-14 0 0)
(-3.11038e-15 0 0)
(4.56721e-14 0 0)
(3.51955e-14 0 0)
(3.00639e-14 0 0)
(5.03932e-14 0 0)
(2.22401e-14 0 0)
(6.67356e-14 0 0)
(2.98665e-14 0 0)
(4.21746e-14 0 0)
(1.94531e-14 0 0)
(8.88977e-15 0 0)
(5.59038e-14 0 0)
(4.61221e-14 0 0)
(2.60613e-14 0 0)
(4.96194e-14 0 0)
(4.47168e-14 0 0)
(8.00557e-15 0 0)
(5.41432e-14 0 0)
(-3.67347e-14 0 0)
(5.85167e-14 0 0)
(-3.87401e-14 0 0)
(2.2674e-14 0 0)
(-5.62274e-14 0 0)
(-7.96617e-15 0 0)
(-7.70621e-14 0 0)
(-3.81483e-14 0 0)
(-7.59253e-14 0 0)
(-2.3835e-14 0 0)
(-5.74354e-14 0 0)
(-5.88726e-14 0 0)
(-5.89749e-14 0 0)
(-3.52904e-14 0 0)
(-4.36669e-14 0 0)
(-6.80935e-14 0 0)
(-5.28093e-14 0 0)
(-7.74647e-14 0 0)
(-2.85641e-14 0 0)
(-9.84889e-14 0 0)
(-2.69218e-14 0 0)
(-4.92959e-14 0 0)
(-2.35428e-14 0 0)
(-6.7975e-14 0 0)
(-2.55026e-15 0 0)
(-3.59218e-14 0 0)
(-3.3577e-14 0 0)
(-3.47298e-14 0 0)
(-3.96562e-14 0 0)
(-7.49858e-14 0 0)
(-1.38873e-14 0 0)
(-3.78799e-14 0 0)
(-5.01327e-14 0 0)
(-3.19113e-14 0 0)
(-3.73587e-14 0 0)
(-1.84267e-14 0 0)
(7.42901e-15 0 0)
(-7.5001e-16 0 0)
(-2.19162e-14 0 0)
(1.15187e-14 0 0)
(1.93423e-15 0 0)
(2.9898e-14 0 0)
(1.4645e-14 0 0)
(-7.98959e-15 0 0)
(1.70293e-14 0 0)
(-1.30107e-14 0 0)
(2.22793e-14 0 0)
(-3.19821e-14 0 0)
(3.21873e-14 0 0)
(-5.03693e-14 0 0)
(4.3556e-14 0 0)
(-3.25584e-14 0 0)
(1.8324e-14 0 0)
(-4.10533e-15 0 0)
(6.8212e-15 0 0)
(1.27906e-15 0 0)
(2.72768e-14 0 0)
(1.66268e-14 0 0)
(4.61378e-14 0 0)
(6.4004e-14 0 0)
(3.03166e-14 0 0)
(7.09515e-14 0 0)
(1.25452e-14 0 0)
(7.97464e-14 0 0)
(2.85718e-14 0 0)
(8.70256e-14 0 0)
(5.1996e-14 0 0)
(7.19147e-14 0 0)
(3.94196e-14 0 0)
(9.45414e-14 0 0)
(2.3685e-14 0 0)
(5.558e-14 0 0)
(2.67245e-14 0 0)
(2.794e-14 0 0)
(2.74903e-14 0 0)
(5.71196e-14 0 0)
(4.99197e-14 0 0)
(5.72854e-14 0 0)
(4.31141e-14 0 0)
(1.52136e-14 0 0)
(3.99797e-14 0 0)
(1.08477e-14 0 0)
(1.6066e-14 0 0)
(2.21248e-16 0 0)
(2.13082e-14 0 0)
(1.33583e-14 0 0)
(-1.39897e-14 0 0)
(3.51244e-14 0 0)
(-1.09897e-14 0 0)
(4.36592e-15 0 0)
(-5.28167e-15 0 0)
(2.14741e-14 0 0)
(3.00085e-16 0 0)
(2.66059e-14 0 0)
(2.11111e-14 0 0)
(5.43011e-14 0 0)
(5.00381e-14 0 0)
(4.55379e-14 0 0)
(6.76438e-14 0 0)
(7.72043e-14 0 0)
(8.00387e-14 0 0)
(5.33935e-14 0 0)
(1.00723e-13 0 0)
(6.48095e-14 0 0)
(8.50597e-14 0 0)
(5.95435e-14 0 0)
(1.18505e-14 0 0)
(9.73915e-14 0 0)
(4.51117e-14 0 0)
(8.00149e-14 0 0)
(4.91144e-14 0 0)
(1.02523e-13 0 0)
(4.90197e-14 0 0)
(5.30933e-14 0 0)
(1.75663e-14 0 0)
(5.95908e-14 0 0)
(2.91639e-14 0 0)
(4.99353e-14 0 0)
(4.958e-14 0 0)
(-1.23948e-14 0 0)
(4.10929e-14 0 0)
(-6.46589e-15 0 0)
(3.62613e-14 0 0)
(5.55025e-15 0 0)
(4.31061e-14 0 0)
(-2.21135e-14 0 0)
(3.18874e-14 0 0)
(-2.62425e-14 0 0)
(3.24163e-14 0 0)
(-3.49506e-14 0 0)
(1.1779e-14 0 0)
(-5.39378e-14 0 0)
(3.16978e-14 0 0)
(-4.27034e-14 0 0)
(1.91134e-14 0 0)
(-3.98377e-14 0 0)
(-3.43434e-15 0 0)
(-5.41577e-15 0 0)
(3.65691e-14 0 0)
(1.68951e-14 0 0)
(-9.079e-15 0 0)
(4.31692e-14 0 0)
(7.27125e-15 0 0)
(3.5212e-15 0 0)
(2.27369e-15 0 0)
(1.06574e-15 0 0)
(-4.10455e-14 0 0)
(-5.85032e-15 0 0)
(-5.51143e-14 0 0)
(-4.48432e-14 0 0)
(-5.03853e-14 0 0)
(-2.86034e-14 0 0)
(-5.2967e-14 0 0)
(-6.35935e-14 0 0)
(-4.83249e-14 0 0)
(-5.68986e-14 0 0)
(-2.84141e-14 0 0)
(-9.94124e-14 0 0)
(9.03914e-15 0 0)
(-6.42565e-14 0 0)
(-5.00775e-14 0 0)
(-6.3475e-14 0 0)
(-5.10013e-14 0 0)
(-5.06616e-14 0 0)
(-3.69246e-14 0 0)
(-6.87094e-14 0 0)
(-2.74429e-14 0 0)
(-7.55385e-14 0 0)
(-5.23355e-14 0 0)
(-9.78968e-14 0 0)
(-6.36569e-14 0 0)
(-8.09072e-14 0 0)
(-7.50096e-14 0 0)
(-8.071e-14 0 0)
(-1.31663e-13 0 0)
(-9.68789e-14 0 0)
(-1.93393e-13 0 0)
(-6.91363e-14 0 0)
(-1.57574e-13 0 0)
(-1.07055e-13 0 0)
(-1.52766e-13 0 0)
(-9.49209e-14 0 0)
(-1.418e-13 0 0)
(-7.77336e-14 0 0)
(-1.17034e-13 0 0)
(-8.88257e-14 0 0)
(-9.95153e-14 0 0)
(-3.70511e-14 0 0)
(-4.75511e-14 0 0)
(-3.5756e-14 0 0)
(-1.01055e-14 0 0)
(4.2893e-14 0 0)
(6.27884e-14 0 0)
(1.44098e-13 0 0)
(2.63303e-13 0 0)
(4.27897e-13 0 0)
(8.26953e-13 0 0)
(1.24508e-12 0 0)
(2.29972e-12 0 0)
(3.65833e-12 0 0)
(6.18369e-12 0 0)
(1.01056e-11 0 0)
(1.67266e-11 0 0)
(2.72466e-11 0 0)
(4.4418e-11 0 0)
(7.19208e-11 0 0)
(1.16132e-10 0 0)
(1.86433e-10 0 0)
(2.98143e-10 0 0)
(4.74566e-10 0 0)
(7.52014e-10 0 0)
(1.18609e-09 0 0)
(1.86219e-09 0 0)
(2.9101e-09 0 0)
(4.52649e-09 0 0)
(7.00752e-09 0 0)
(1.07971e-08 0 0)
(1.65568e-08 0 0)
(2.5267e-08 0 0)
(3.83734e-08 0 0)
(5.79945e-08 0 0)
(8.72192e-08 0 0)
(1.30524e-07 0 0)
(1.94358e-07 0 0)
(2.87966e-07 0 0)
(4.24508e-07 0 0)
(6.22621e-07 0 0)
(9.08531e-07 0 0)
(1.31892e-06 0 0)
(1.90478e-06 0 0)
(2.73655e-06 0 0)
(3.91094e-06 0 0)
(5.55982e-06 0 0)
(7.86193e-06 0 0)
(1.10579e-05 0 0)
(1.54693e-05 0 0)
(2.15237e-05 0 0)
(2.97846e-05 0 0)
(4.09906e-05 0 0)
(5.6102e-05 0 0)
(7.63595e-05 0 0)
(0.000103353 0 0)
(0.000139108 0 0)
(0.000186179 0 0)
(0.000247773 0 0)
(0.000327876 0 0)
(0.000431409 0 0)
(0.000564397 0 0)
(0.000734159 0 0)
(0.000949512 0 0)
(0.00122099 0 0)
(0.00156108 0 0)
(0.00198444 0 0)
(0.00250815 0 0)
(0.00315194 0 0)
(0.00393838 0 0)
(0.00489311 0 0)
(0.00604495 0 0)
(0.00742601 0 0)
(0.00907181 0 0)
(0.0110212 0 0)
(0.0133165 0 0)
(0.0160031 0 0)
(0.0191293 0 0)
(0.0227466 0 0)
(0.0269086 0 0)
(0.031671 0 0)
(0.0370916 0 0)
(0.043229 0 0)
(0.0501429 0 0)
(0.0578934 0 0)
(0.0665401 0 0)
(0.0761423 0 0)
(0.0867581 0 0)
(0.0984443 0 0)
(0.111256 0 0)
(0.125245 0 0)
(0.140462 0 0)
(0.156956 0 0)
(0.17477 0 0)
(0.193946 0 0)
(0.214524 0 0)
(0.236538 0 0)
(0.260023 0 0)
(0.285007 0 0)
(0.311518 0 0)
(0.339581 0 0)
(0.369216 0 0)
(0.400444 0 0)
(0.433282 0 0)
(0.467744 0 0)
(0.503844 0 0)
(0.541595 0 0)
(0.581005 0 0)
(0.622084 0 0)
(0.664841 0 0)
(0.709281 0 0)
(0.755412 0 0)
(0.803237 0 0)
(0.852763 0 0)
(0.903993 0 0)
(0.956932 0 0)
(1.01158 0 0)
(1.06795 0 0)
(1.12604 0 0)
(1.18585 0 0)
(1.24738 0 0)
(1.31064 0 0)
(1.37564 0 0)
(1.44237 0 0)
(1.51084 0 0)
(1.58105 0 0)
(1.653 0 0)
(1.7267 0 0)
(1.80216 0 0)
(1.87937 0 0)
(1.95834 0 0)
(2.03908 0 0)
(2.12158 0 0)
(2.20585 0 0)
(2.2919 0 0)
(2.37973 0 0)
(2.46934 0 0)
(2.56074 0 0)
(2.65394 0 0)
(2.74894 0 0)
(2.84573 0 0)
(2.94434 0 0)
(3.04477 0 0)
(3.14701 0 0)
(3.25108 0 0)
(3.35697 0 0)
(3.46471 0 0)
(3.57429 0 0)
(3.68571 0 0)
(3.799 0 0)
(3.91414 0 0)
(4.03115 0 0)
(4.15003 0 0)
(4.27079 0 0)
(4.39344 0 0)
(4.51798 0 0)
(4.64443 0 0)
(4.77278 0 0)
(4.90305 0 0)
(5.03523 0 0)
(5.16935 0 0)
(5.30541 0 0)
(5.4434 0 0)
(5.58335 0 0)
(5.72526 0 0)
(5.86913 0 0)
(6.01498 0 0)
(6.16281 0 0)
(6.31263 0 0)
(6.46445 0 0)
(6.61828 0 0)
(6.77412 0 0)
(6.93199 0 0)
(7.09188 0 0)
(7.25382 0 0)
(7.4178 0 0)
(7.58384 0 0)
(7.75195 0 0)
(7.92213 0 0)
(8.09439 0 0)
(8.26875 0 0)
(8.44521 0 0)
(8.62379 0 0)
(8.80449 0 0)
(8.98731 0 0)
(9.17228 0 0)
(9.35941 0 0)
(9.54869 0 0)
(9.74015 0 0)
(9.93379 0 0)
(10.1296 0 0)
(10.3277 0 0)
(10.5279 0 0)
(10.7304 0 0)
(10.9351 0 0)
(11.1421 0 0)
(11.3514 0 0)
(11.5629 0 0)
(11.7767 0 0)
(11.9928 0 0)
(12.2113 0 0)
(12.432 0 0)
(12.6551 0 0)
(12.8806 0 0)
(13.1084 0 0)
(13.3386 0 0)
(13.5712 0 0)
(13.8062 0 0)
(14.0437 0 0)
(14.2836 0 0)
(14.5259 0 0)
(14.7708 0 0)
(15.0181 0 0)
(15.2679 0 0)
(15.5202 0 0)
(15.7751 0 0)
(16.0325 0 0)
(16.2926 0 0)
(16.5551 0 0)
(16.8205 0 0)
(17.0882 0 0)
(17.3589 0 0)
(17.6318 0 0)
(17.908 0 0)
(18.1861 0 0)
(18.4679 0 0)
(18.7513 0 0)
(19.0388 0 0)
(19.3277 0 0)
(19.6209 0 0)
(19.9153 0 0)
(20.2144 0 0)
(20.5143 0 0)
(20.8193 0 0)
(21.125 0 0)
(21.4361 0 0)
(21.7475 0 0)
(22.0647 0 0)
(22.382 0 0)
(22.7055 0 0)
(23.0289 0 0)
(23.3587 0 0)
(23.6882 0 0)
(24.0245 0 0)
(24.3604 0 0)
(24.7031 0 0)
(25.0455 0 0)
(25.3949 0 0)
(25.7438 0 0)
(26.1 0 0)
(26.4555 0 0)
(26.8183 0 0)
(27.1803 0 0)
(27.5492 0 0)
(27.9165 0 0)
(28.2894 0 0)
(28.6631 0 0)
(29.0355 0 0)
(29.4107 0 0)
(29.7855 0 0)
(30.1667 0 0)
(30.5467 0 0)
(30.9367 0 0)
(31.322 0 0)
(31.7212 0 0)
(32.1104 0 0)
(32.5186 0 0)
(32.9111 0 0)
(33.3282 0 0)
(33.7241 0 0)
(34.1504 0 0)
(34.5497 0 0)
(34.9855 0 0)
(35.3883 0 0)
(35.8335 0 0)
(36.2398 0 0)
(36.6944 0 0)
(37.1041 0 0)
(37.5683 0 0)
(37.9814 0 0)
(38.4552 0 0)
(38.8718 0 0)
(39.3553 0 0)
(39.7753 0 0)
(40.2685 0 0)
(40.6919 0 0)
(41.1949 0 0)
(41.6218 0 0)
(42.1347 0 0)
(42.565 0 0)
(43.0878 0 0)
(43.5214 0 0)
(44.0543 0 0)
(44.4913 0 0)
(45.0342 0 0)
(45.4745 0 0)
(46.0276 0 0)
(46.4712 0 0)
(47.0345 0 0)
(47.4813 0 0)
(48.0549 0 0)
(48.5049 0 0)
(49.0888 0 0)
(49.542 0 0)
(50.1363 0 0)
(50.5925 0 0)
(51.1972 0 0)
(51.6565 0 0)
(52.2716 0 0)
(52.7339 0 0)
(53.3594 0 0)
(53.8246 0 0)
(54.4604 0 0)
(54.9287 0 0)
(55.5745 0 0)
(56.0458 0 0)
(56.7018 0 0)
(57.176 0 0)
(57.8418 0 0)
(58.3189 0 0)
(58.9946 0 0)
(59.4744 0 0)
(60.1597 0 0)
(60.6421 0 0)
(61.337 0 0)
(61.8217 0 0)
(62.5259 0 0)
(63.0128 0 0)
(63.7262 0 0)
(64.2148 0 0)
(64.9372 0 0)
(65.4272 0 0)
(66.1583 0 0)
(66.6493 0 0)
(67.3889 0 0)
(67.8803 0 0)
(68.6281 0 0)
(69.1194 0 0)
(69.875 0 0)
(70.3655 0 0)
(71.1285 0 0)
(71.6173 0 0)
(72.3874 0 0)
(72.8735 0 0)
(73.6501 0 0)
(74.1325 0 0)
(74.9151 0 0)
(75.3924 0 0)
(76.1805 0 0)
(76.6507 0 0)
(77.4446 0 0)
(77.9031 0 0)
(78.7037 0 0)
(79.1378 0 0)
(80.6627 0 0)
)
;

boundaryField
{
    sideLeft
    {
        type            symmetryPlane;
    }
    sideRight
    {
        type            calculated;
        value           uniform (80.2947 0 0);
    }
    topbottom
    {
        type            empty;
    }
    frontback
    {
        type            empty;
    }
}


// ************************************************************************* //
