/*--------------------------------*- C++ -*----------------------------------*\
| =========                 |                                                 |
| \\      /  F ield         | OpenFOAM: The Open Source CFD Toolbox           |
|  \\    /   O peration     | Version:  2.4.0                                 |
|   \\  /    A nd           | Web:      www.OpenFOAM.org                      |
|    \\/     M anipulation  |                                                 |
\*---------------------------------------------------------------------------*/
FoamFile
{
    version     2.0;
    format      ascii;
    class       volVectorField;
    location    "0.09";
    object      U.air;
}
// * * * * * * * * * * * * * * * * * * * * * * * * * * * * * * * * * * * * * //

dimensions      [0 1 -1 0 0 0 0];

internalField   nonuniform List<vector> 
1000
(
(-2.13162e-13 0 0)
(-3.33955e-13 0 0)
(-3.26849e-13 0 0)
(-2.34479e-13 0 0)
(2.84223e-14 0 0)
(1.7053e-13 0 0)
(2.34479e-13 0 0)
(1.49214e-13 0 0)
(1.84741e-13 0 0)
(2.62901e-13 0 0)
(2.27374e-13 0 0)
(1.77636e-13 0 0)
(2.84212e-14 0 0)
(1.20793e-13 0 0)
(7.10536e-14 0 0)
(2.06058e-13 0 0)
(4.76063e-13 0 0)
(5.54224e-13 0 0)
(7.38964e-13 0 0)
(5.68435e-13 0 0)
(3.97903e-13 0 0)
(2.20269e-13 0 0)
(8.52649e-14 0 0)
(-1.35003e-13 0 0)
(3.12639e-13 0 0)
(3.4106e-13 0 0)
(3.41061e-13 0 0)
(2.34479e-13 0 0)
(1.06582e-13 0 0)
(4.2632e-14 0 0)
(-2.20268e-13 0 0)
(-2.13163e-13 0 0)
(-4.83169e-13 0 0)
(-3.83693e-13 0 0)
(-2.48691e-13 0 0)
(-4.54746e-13 0 0)
(-5.18697e-13 0 0)
(-5.8975e-13 0 0)
(-5.82646e-13 0 0)
(-7.81596e-13 0 0)
(-4.8317e-13 0 0)
(-2.629e-13 0 0)
(-3.76588e-13 0 0)
(-3.76587e-13 0 0)
(-2.13163e-13 0 0)
(-3.19744e-13 0 0)
(-9.9476e-14 0 0)
(-2.13163e-13 0 0)
(-4.47642e-13 0 0)
(-4.12115e-13 0 0)
(-3.62376e-13 0 0)
(-3.76849e-19 0 0)
(1.13687e-13 0 0)
(-7.10576e-15 0 0)
(7.10574e-15 0 0)
(1.7053e-13 0 0)
(1.7053e-13 0 0)
(2.13162e-14 0 0)
(-6.39486e-14 0 0)
(-1.35003e-13 0 0)
(-2.98428e-13 0 0)
(-1.42109e-13 0 0)
(-2.4869e-13 0 0)
(-2.41584e-13 0 0)
(2.13163e-14 0 0)
(-6.39488e-14 0 0)
(2.84216e-14 0 0)
(2.27374e-13 0 0)
(2.4869e-13 0 0)
(-2.8422e-14 0 0)
(-2.91322e-13 0 0)
(-2.27374e-13 0 0)
(-4.90274e-13 0 0)
(-7.10543e-13 0 0)
(-3.76588e-13 0 0)
(-2.70006e-13 0 0)
(-3.12639e-13 0 0)
(-2.55795e-13 0 0)
(-5.32907e-13 0 0)
(-6.32383e-13 0 0)
(-6.25278e-13 0 0)
(-2.55795e-13 0 0)
(7.10553e-15 0 0)
(-4.97383e-14 0 0)
(-2.41584e-13 0 0)
(-3.97904e-13 0 0)
(-1.84741e-13 0 0)
(2.20268e-13 0 0)
(3.55271e-13 0 0)
(3.05534e-13 0 0)
(3.55271e-13 0 0)
(4.26326e-13 0 0)
(1.91847e-13 0 0)
(2.34479e-13 0 0)
(1.5632e-13 0 0)
(1.63424e-13 0 0)
(-2.13156e-14 0 0)
(1.77635e-13 0 0)
(3.76588e-13 0 0)
(3.12639e-13 0 0)
(1.20792e-13 0 0)
(2.13163e-13 0 0)
(2.13163e-13 0 0)
(3.12639e-13 0 0)
(4.47642e-13 0 0)
(3.48166e-13 0 0)
(6.82121e-13 0 0)
(1.06581e-12 0 0)
(1.03739e-12 0 0)
(8.3844e-13 0 0)
(6.67911e-13 0 0)
(7.10542e-13 0 0)
(2.34479e-13 0 0)
(-1.13687e-13 0 0)
(-1.7053e-13 0 0)
(1.35003e-13 0 0)
(1.5632e-13 0 0)
(2.84216e-14 0 0)
(-1.98952e-13 0 0)
(-5.04485e-13 0 0)
(-2.91323e-13 0 0)
(-4.1922e-13 0 0)
(-5.25802e-13 0 0)
(-7.4607e-13 0 0)
(-6.89227e-13 0 0)
(-8.17124e-13 0 0)
(-8.45546e-13 0 0)
(-7.88702e-13 0 0)
(-5.40013e-13 0 0)
(-3.05533e-13 0 0)
(-2.13164e-13 0 0)
(-2.48689e-13 0 0)
(-4.97382e-14 0 0)
(3.55274e-14 0 0)
(1.20792e-13 0 0)
(-1.13687e-13 0 0)
(-3.33955e-13 0 0)
(-3.76588e-13 0 0)
(-3.41061e-13 0 0)
(-2.98428e-13 0 0)
(-1.49214e-13 0 0)
(-2.84221e-14 0 0)
(7.10594e-15 0 0)
(-6.39493e-14 0 0)
(-9.94755e-14 0 0)
(2.84214e-14 0 0)
(-1.98952e-13 0 0)
(-2.27374e-13 0 0)
(-4.05009e-13 0 0)
(-5.8975e-13 0 0)
(-7.17648e-13 0 0)
(-8.17124e-13 0 0)
(-6.46594e-13 0 0)
(-5.40012e-13 0 0)
(-5.68434e-13 0 0)
(-4.33431e-13 0 0)
(-3.90799e-13 0 0)
(-4.05009e-13 0 0)
(-5.32907e-13 0 0)
(-5.96856e-13 0 0)
(-6.11066e-13 0 0)
(-1.91847e-13 0 0)
(-2.41584e-13 0 0)
(-5.68439e-14 0 0)
(2.62901e-13 0 0)
(3.90798e-13 0 0)
(1.13687e-13 0 0)
(-5.09042e-19 0 0)
(-7.10539e-14 0 0)
(-1.13687e-13 0 0)
(-2.91322e-13 0 0)
(-5.54224e-13 0 0)
(-6.89226e-13 0 0)
(-5.68434e-13 0 0)
(-6.6791e-13 0 0)
(-6.39489e-13 0 0)
(-8.10018e-13 0 0)
(-1.14397e-12 0 0)
(-1.22213e-12 0 0)
(-8.45546e-13 0 0)
(-5.89751e-13 0 0)
(-2.55795e-13 0 0)
(-3.19385e-19 0 0)
(-2.27373e-13 0 0)
(-4.19221e-13 0 0)
(-6.53699e-13 0 0)
(-5.04486e-13 0 0)
(-7.46069e-13 0 0)
(-7.95809e-13 0 0)
(-7.46069e-13 0 0)
(-4.33432e-13 0 0)
(-4.83168e-13 0 0)
(-3.90799e-13 0 0)
(-8.10019e-13 0 0)
(-4.40537e-13 0 0)
(-3.4106e-13 0 0)
(-1.91846e-13 0 0)
(-1.98952e-13 0 0)
(-2.20268e-13 0 0)
(-1.42108e-13 0 0)
(-2.62901e-13 0 0)
(-2.77111e-13 0 0)
(-2.3448e-13 0 0)
(-1.98952e-13 0 0)
(-1.77636e-13 0 0)
(-2.55795e-13 0 0)
(-1.84741e-13 0 0)
(-9.9476e-14 0 0)
(-2.1316e-14 0 0)
(-1.98952e-13 0 0)
(-7.10542e-14 0 0)
(-2.13163e-13 0 0)
(-2.20268e-13 0 0)
(-6.39492e-14 0 0)
(-4.9738e-13 0 0)
(-3.41061e-13 0 0)
(-8.5265e-14 0 0)
(9.9476e-14 0 0)
(2.70006e-13 0 0)
(3.2685e-13 0 0)
(4.83169e-13 0 0)
(6.60805e-13 0 0)
(5.04485e-13 0 0)
(5.7554e-13 0 0)
(6.03962e-13 0 0)
(5.61329e-13 0 0)
(7.38964e-13 0 0)
(7.17649e-13 0 0)
(5.82645e-13 0 0)
(5.54224e-13 0 0)
(5.25802e-13 0 0)
(4.61853e-13 0 0)
(4.90275e-13 0 0)
(5.1159e-13 0 0)
(3.19745e-13 0 0)
(4.12114e-13 0 0)
(2.84222e-14 0 0)
(-2.3448e-13 0 0)
(-1.84741e-13 0 0)
(-1.42109e-13 0 0)
(-5.54223e-13 0 0)
(-5.96856e-13 0 0)
(-3.62376e-13 0 0)
(-3.97905e-13 0 0)
(-3.90798e-13 0 0)
(-3.19745e-13 0 0)
(-1.35003e-13 0 0)
(-1.20793e-13 0 0)
(-1.06581e-13 0 0)
(-2.06058e-13 0 0)
(-3.55271e-13 0 0)
(-2.91323e-13 0 0)
(-2.91323e-13 0 0)
(-3.48166e-13 0 0)
(-5.11591e-13 0 0)
(-4.12114e-13 0 0)
(-4.8317e-13 0 0)
(-8.88178e-13 0 0)
(-7.17649e-13 0 0)
(-7.10542e-13 0 0)
(-5.18697e-13 0 0)
(-2.06057e-13 0 0)
(-7.1057e-15 0 0)
(-1.77636e-13 0 0)
(-5.25801e-13 0 0)
(-6.82121e-13 0 0)
(-8.59756e-13 0 0)
(-9.37917e-13 0 0)
(-7.10542e-13 0 0)
(-2.91323e-13 0 0)
(-6.18172e-13 0 0)
(-4.76064e-13 0 0)
(-6.60805e-13 0 0)
(-5.61329e-13 0 0)
(-4.33431e-13 0 0)
(-4.12115e-13 0 0)
(-3.55271e-13 0 0)
(6.39482e-14 0 0)
(7.10588e-15 0 0)
(-3.55274e-14 0 0)
(-5.68432e-14 0 0)
(4.26324e-14 0 0)
(2.84217e-13 0 0)
(3.05534e-13 0 0)
(3.90798e-13 0 0)
(4.54748e-13 0 0)
(5.25802e-13 0 0)
(6.25278e-13 0 0)
(4.33431e-13 0 0)
(5.54223e-13 0 0)
(6.89226e-13 0 0)
(4.76064e-13 0 0)
(2.27373e-13 0 0)
(1.49214e-13 0 0)
(2.70006e-13 0 0)
(-4.97376e-14 0 0)
(-7.81596e-14 0 0)
(-4.26327e-14 0 0)
(-2.8422e-14 0 0)
(2.13167e-14 0 0)
(4.40536e-13 0 0)
(4.12115e-13 0 0)
(3.83693e-13 0 0)
(2.77111e-13 0 0)
(2.55796e-13 0 0)
(4.54747e-13 0 0)
(7.38965e-13 0 0)
(7.74492e-13 0 0)
(8.17124e-13 0 0)
(8.81073e-13 0 0)
(6.39488e-13 0 0)
(2.84217e-13 0 0)
(2.84217e-13 0 0)
(3.12639e-13 0 0)
(4.76063e-13 0 0)
(7.03437e-13 0 0)
(9.166e-13 0 0)
(7.67386e-13 0 0)
(8.66862e-13 0 0)
(8.95284e-13 0 0)
(9.52127e-13 0 0)
(9.23706e-13 0 0)
(7.4607e-13 0 0)
(7.95808e-13 0 0)
(9.02389e-13 0 0)
(7.31859e-13 0 0)
(9.166e-13 0 0)
(1.19371e-12 0 0)
(1.27187e-12 0 0)
(1.39266e-12 0 0)
(1.11555e-12 0 0)
(7.88702e-13 0 0)
(6.60805e-13 0 0)
(6.18172e-13 0 0)
(6.25278e-13 0 0)
(6.60804e-13 0 0)
(3.2685e-13 0 0)
(5.89751e-13 0 0)
(7.03437e-13 0 0)
(4.90275e-13 0 0)
(3.76587e-13 0 0)
(2.20268e-13 0 0)
(-1.42109e-13 0 0)
(-2.13159e-14 0 0)
(1.42108e-13 0 0)
(-2.629e-13 0 0)
(-4.12115e-13 0 0)
(-5.47117e-13 0 0)
(-5.82645e-13 0 0)
(-4.47642e-13 0 0)
(-5.04485e-13 0 0)
(-5.18696e-13 0 0)
(-3.76588e-13 0 0)
(-4.68958e-13 0 0)
(-4.97383e-14 0 0)
(-9.9476e-14 0 0)
(-1.13686e-13 0 0)
(1.77635e-13 0 0)
(3.2685e-13 0 0)
(2.55795e-13 0 0)
(7.10542e-14 0 0)
(2.84217e-14 0 0)
(-2.13161e-14 0 0)
(1.84741e-13 0 0)
(2.98428e-13 0 0)
(3.05533e-13 0 0)
(5.01583e-19 0 0)
(-2.62901e-13 0 0)
(-1.27897e-13 0 0)
(4.97379e-14 0 0)
(-2.13163e-13 0 0)
(-4.40537e-13 0 0)
(-4.05009e-13 0 0)
(-4.19221e-13 0 0)
(-5.04485e-13 0 0)
(-5.11591e-13 0 0)
(-4.61853e-13 0 0)
(-5.47118e-13 0 0)
(-4.68958e-13 0 0)
(-4.26332e-14 0 0)
(7.81602e-14 0 0)
(1.20792e-13 0 0)
(3.55272e-14 0 0)
(9.23706e-14 0 0)
(1.42104e-14 0 0)
(-7.1045e-15 0 0)
(-3.55281e-14 0 0)
(-1.8474e-13 0 0)
(-1.91847e-13 0 0)
(-8.52647e-14 0 0)
(3.33955e-13 0 0)
(5.40013e-13 0 0)
(5.54223e-13 0 0)
(2.84218e-13 0 0)
(3.26849e-13 0 0)
(1.91847e-13 0 0)
(1.49214e-13 0 0)
(-7.10501e-15 0 0)
(-9.94764e-14 0 0)
(-1.91846e-13 0 0)
(-1.35003e-13 0 0)
(1.06581e-13 0 0)
(1.42109e-13 0 0)
(-1.98952e-13 0 0)
(-5.47118e-13 0 0)
(-3.69482e-13 0 0)
(2.06057e-13 0 0)
(5.96856e-13 0 0)
(5.61329e-13 0 0)
(7.24753e-13 0 0)
(6.60805e-13 0 0)
(9.37916e-13 0 0)
(9.52128e-13 0 0)
(7.17648e-13 0 0)
(4.61853e-13 0 0)
(5.25802e-13 0 0)
(4.26326e-13 0 0)
(4.54747e-13 0 0)
(1.98953e-13 0 0)
(3.62376e-13 0 0)
(2.70007e-13 0 0)
(5.96856e-13 0 0)
(5.40013e-13 0 0)
(1.56319e-13 0 0)
(2.20268e-13 0 0)
(3.12639e-13 0 0)
(1.35003e-13 0 0)
(2.8422e-14 0 0)
(5.54223e-13 0 0)
(7.31859e-13 0 0)
(7.10542e-13 0 0)
(7.17648e-13 0 0)
(9.59233e-13 0 0)
(1.05871e-12 0 0)
(1.38556e-12 0 0)
(1.60583e-12 0 0)
(1.78346e-12 0 0)
(1.47793e-12 0 0)
(1.47793e-12 0 0)
(1.39977e-12 0 0)
(1.29319e-12 0 0)
(1.13687e-12 0 0)
(8.95284e-13 0 0)
(6.6791e-13 0 0)
(5.32907e-13 0 0)
(4.83169e-13 0 0)
(2.70007e-13 0 0)
(3.55271e-13 0 0)
(1.27898e-13 0 0)
(-5.68436e-14 0 0)
(1.27898e-13 0 0)
(1.84741e-13 0 0)
(1.91846e-13 0 0)
(1.42108e-14 0 0)
(8.52654e-14 0 0)
(2.27374e-13 0 0)
(4.47642e-13 0 0)
(3.69483e-13 0 0)
(5.40012e-13 0 0)
(7.38965e-13 0 0)
(8.95283e-13 0 0)
(8.38441e-13 0 0)
(9.66338e-13 0 0)
(6.60805e-13 0 0)
(7.81597e-13 0 0)
(6.67911e-13 0 0)
(5.40012e-13 0 0)
(4.76064e-13 0 0)
(5.32907e-13 0 0)
(7.60281e-13 0 0)
(7.81597e-13 0 0)
(7.95808e-13 0 0)
(8.66862e-13 0 0)
(8.66862e-13 0 0)
(7.67386e-13 0 0)
(7.17648e-13 0 0)
(5.89751e-13 0 0)
(4.61852e-13 0 0)
(1.91847e-13 0 0)
(2.06057e-13 0 0)
(9.94762e-14 0 0)
(-1.06582e-13 0 0)
(-6.46593e-13 0 0)
(-6.60805e-13 0 0)
(-4.76063e-13 0 0)
(-4.12115e-13 0 0)
(-4.90275e-13 0 0)
(-5.25802e-13 0 0)
(-6.46593e-13 0 0)
(-8.02914e-13 0 0)
(-1.09424e-12 0 0)
(-1.22213e-12 0 0)
(-1.32161e-12 0 0)
(-1.16529e-12 0 0)
(-8.10019e-13 0 0)
(-2.41585e-13 0 0)
(-9.23706e-14 0 0)
(-8.52648e-14 0 0)
(-7.1056e-15 0 0)
(4.97381e-14 0 0)
(2.77111e-13 0 0)
(2.84216e-14 0 0)
(7.10567e-15 0 0)
(1.84741e-13 0 0)
(3.07994e-19 0 0)
(-2.27374e-13 0 0)
(-2.629e-13 0 0)
(-3.55272e-13 0 0)
(-6.18171e-13 0 0)
(-5.25802e-13 0 0)
(-7.67386e-13 0 0)
(-6.32383e-13 0 0)
(-5.82645e-13 0 0)
(-4.9738e-13 0 0)
(-5.7554e-13 0 0)
(-6.537e-13 0 0)
(-6.18172e-13 0 0)
(-6.18172e-13 0 0)
(-3.55272e-13 0 0)
(-2.4869e-13 0 0)
(-3.2685e-13 0 0)
(-4.76063e-13 0 0)
(-3.33956e-13 0 0)
(-4.97379e-13 0 0)
(-2.13166e-14 0 0)
(5.68436e-14 0 0)
(-1.77636e-13 0 0)
(-1.7053e-13 0 0)
(-2.13163e-13 0 0)
(-3.4106e-13 0 0)
(-2.34479e-13 0 0)
(2.20268e-13 0 0)
(3.55271e-13 0 0)
(1.13687e-13 0 0)
(1.7053e-13 0 0)
(2.70006e-13 0 0)
(9.94758e-14 0 0)
(-2.84218e-14 0 0)
(-2.62901e-13 0 0)
(-2.13163e-13 0 0)
(-1.91846e-13 0 0)
(-2.98428e-13 0 0)
(2.84219e-14 0 0)
(9.23704e-14 0 0)
(3.05533e-13 0 0)
(2.62901e-13 0 0)
(5.18696e-13 0 0)
(4.0501e-13 0 0)
(-6.10334e-20 0 0)
(-4.26324e-14 0 0)
(-7.10545e-14 0 0)
(-7.10541e-14 0 0)
(3.12639e-13 0 0)
(3.76588e-13 0 0)
(3.97904e-13 0 0)
(3.62377e-13 0 0)
(5.25802e-13 0 0)
(6.46594e-13 0 0)
(6.03961e-13 0 0)
(8.17124e-13 0 0)
(8.17125e-13 0 0)
(6.89226e-13 0 0)
(3.19745e-13 0 0)
(1.63425e-13 0 0)
(1.42108e-13 0 0)
(9.23711e-14 0 0)
(-7.10605e-15 0 0)
(-2.06057e-13 0 0)
(-7.10545e-14 0 0)
(-1.91846e-13 0 0)
(-1.49214e-13 0 0)
(-1.91846e-13 0 0)
(-3.97904e-13 0 0)
(-4.61852e-13 0 0)
(-2.70007e-13 0 0)
(1.42111e-14 0 0)
(7.10541e-14 0 0)
(-2.41585e-13 0 0)
(-4.12114e-13 0 0)
(-3.69483e-13 0 0)
(-4.83169e-13 0 0)
(-2.77112e-13 0 0)
(-4.61852e-13 0 0)
(-2.98428e-13 0 0)
(-3.69482e-13 0 0)
(-3.2685e-13 0 0)
(-1.13686e-13 0 0)
(1.56319e-13 0 0)
(2.3448e-13 0 0)
(1.35003e-13 0 0)
(-1.27897e-13 0 0)
(-2.55796e-13 0 0)
(-2.77111e-13 0 0)
(-2.91323e-13 0 0)
(-5.8975e-13 0 0)
(-3.41061e-13 0 0)
(-1.91846e-13 0 0)
(-2.34479e-13 0 0)
(-3.69482e-13 0 0)
(-3.05533e-13 0 0)
(7.105e-15 0 0)
(-1.20792e-13 0 0)
(-1.35003e-13 0 0)
(-2.4869e-13 0 0)
(-2.77112e-13 0 0)
(-1.7053e-13 0 0)
(-2.06058e-13 0 0)
(2.77112e-13 0 0)
(5.47118e-13 0 0)
(5.47118e-13 0 0)
(5.04485e-13 0 0)
(5.40013e-13 0 0)
(5.54224e-13 0 0)
(4.90274e-13 0 0)
(5.18696e-13 0 0)
(5.68434e-13 0 0)
(4.97381e-13 0 0)
(5.75539e-13 0 0)
(6.32383e-13 0 0)
(5.47118e-13 0 0)
(4.0501e-13 0 0)
(7.10542e-14 0 0)
(-1.20792e-13 0 0)
(-1.91847e-13 0 0)
(-4.40536e-13 0 0)
(-7.53176e-13 0 0)
(-8.81073e-13 0 0)
(-8.88179e-13 0 0)
(-1.12266e-12 0 0)
(-1.06581e-12 0 0)
(-1.1795e-12 0 0)
(-1.23634e-12 0 0)
(-1.32161e-12 0 0)
(-1.15818e-12 0 0)
(-9.45022e-13 0 0)
(-7.95807e-13 0 0)
(-7.3186e-13 0 0)
(-7.74491e-13 0 0)
(-5.40013e-13 0 0)
(-5.96855e-13 0 0)
(-4.26326e-13 0 0)
(-2.41584e-13 0 0)
(-1.35004e-13 0 0)
(1.35003e-13 0 0)
(5.68434e-13 0 0)
(8.88179e-13 0 0)
(1.38556e-12 0 0)
(2.30926e-12 0 0)
(3.5314e-12 0 0)
(5.6275e-12 0 0)
(9.22284e-12 0 0)
(1.50635e-11 0 0)
(2.49756e-11 0 0)
(4.14602e-11 0 0)
(6.92069e-11 0 0)
(1.1589e-10 0 0)
(1.92863e-10 0 0)
(3.1951e-10 0 0)
(5.26747e-10 0 0)
(8.64759e-10 0 0)
(1.41389e-09 0 0)
(2.30143e-09 0 0)
(3.72786e-09 0 0)
(6.01118e-09 0 0)
(9.64874e-09 0 0)
(1.54167e-08 0 0)
(2.45193e-08 0 0)
(3.88157e-08 0 0)
(6.11607e-08 0 0)
(9.59157e-08 0 0)
(1.49708e-07 0 0)
(2.32551e-07 0 0)
(3.59499e-07 0 0)
(5.53052e-07 0 0)
(8.46654e-07 0 0)
(1.28974e-06 0 0)
(1.95495e-06 0 0)
(2.94843e-06 0 0)
(4.42437e-06 0 0)
(6.6054e-06 0 0)
(9.81107e-06 0 0)
(1.44972e-05 0 0)
(2.13103e-05 0 0)
(3.11608e-05 0 0)
(4.53237e-05 0 0)
(6.55726e-05 0 0)
(9.43581e-05 0 0)
(0.000135045 0 0)
(0.000192221 0 0)
(0.000272098 0 0)
(0.000383032 0 0)
(0.00053618 0 0)
(0.000746331 0 0)
(0.00103295 0 0)
(0.00142145 0 0)
(0.0019448 0 0)
(0.00264536 0 0)
(0.00357719 0 0)
(0.00480873 0 0)
(0.00642584 0 0)
(0.00853534 0 0)
(0.011269 0 0)
(0.014788 0 0)
(0.0192874 0 0)
(0.0250014 0 0)
(0.032208 0 0)
(0.0412346 0 0)
(0.0524622 0 0)
(0.0663297 0 0)
(0.0833372 0 0)
(0.104048 0 0)
(0.12909 0 0)
(0.159153 0 0)
(0.194985 0 0)
(0.237392 0 0)
(0.28722 0 0)
(0.345356 0 0)
(0.412706 0 0)
(0.490185 0 0)
(0.578701 0 0)
(0.679134 0 0)
(0.792323 0 0)
(0.919044 0 0)
(1.05999 0 0)
(1.21578 0 0)
(1.38689 0 0)
(1.57371 0 0)
(1.77649 0 0)
(1.99535 0 0)
(2.23028 0 0)
(2.48113 0 0)
(2.74765 0 0)
(3.02945 0 0)
(3.32604 0 0)
(3.63683 0 0)
(3.96117 0 0)
(4.29832 0 0)
(4.6475 0 0)
(5.0079 0 0)
(5.37866 0 0)
(5.75895 0 0)
(6.14792 0 0)
(6.54474 0 0)
(6.94861 0 0)
(7.35876 0 0)
(7.77447 0 0)
(8.19504 0 0)
(8.61985 0 0)
(9.04832 0 0)
(9.47991 0 0)
(9.91415 0 0)
(10.3506 0 0)
(10.7889 0 0)
(11.2288 0 0)
(11.6699 0 0)
(12.112 0 0)
(12.5548 0 0)
(12.9983 0 0)
(13.4423 0 0)
(13.8867 0 0)
(14.3313 0 0)
(14.7761 0 0)
(15.2211 0 0)
(15.6662 0 0)
(16.1113 0 0)
(16.5565 0 0)
(17.0018 0 0)
(17.4471 0 0)
(17.8925 0 0)
(18.3379 0 0)
(18.7834 0 0)
(19.229 0 0)
(19.6747 0 0)
(20.1206 0 0)
(20.5665 0 0)
(21.0127 0 0)
(21.459 0 0)
(21.9056 0 0)
(22.3523 0 0)
(22.7994 0 0)
(23.2467 0 0)
(23.6943 0 0)
(24.1423 0 0)
(24.5906 0 0)
(25.0393 0 0)
(25.4884 0 0)
(25.9379 0 0)
(26.3879 0 0)
(26.8383 0 0)
(27.2892 0 0)
(27.7407 0 0)
(28.1926 0 0)
(28.6451 0 0)
(29.0982 0 0)
(29.5519 0 0)
(30.0062 0 0)
(30.4611 0 0)
(30.9166 0 0)
(31.3729 0 0)
(31.8297 0 0)
(32.2873 0 0)
(32.7455 0 0)
(33.2045 0 0)
(33.6642 0 0)
(34.1246 0 0)
(34.5857 0 0)
(35.0477 0 0)
(35.5103 0 0)
(35.9737 0 0)
(36.438 0 0)
(36.9029 0 0)
(37.3687 0 0)
(37.8353 0 0)
(38.3026 0 0)
(38.7708 0 0)
(39.2398 0 0)
(39.7096 0 0)
(40.1803 0 0)
(40.6518 0 0)
(41.1242 0 0)
(41.5974 0 0)
(42.0715 0 0)
(42.5465 0 0)
(43.0224 0 0)
(43.4992 0 0)
(43.977 0 0)
(44.4557 0 0)
(44.9354 0 0)
(45.4161 0 0)
(45.8978 0 0)
(46.3806 0 0)
(46.8644 0 0)
(47.3493 0 0)
(47.8353 0 0)
(48.3224 0 0)
(48.8107 0 0)
(49.3002 0 0)
(49.7909 0 0)
(50.2828 0 0)
(50.7759 0 0)
(51.2704 0 0)
(51.7661 0 0)
(52.2632 0 0)
(52.7616 0 0)
(53.2614 0 0)
(53.7627 0 0)
(54.2653 0 0)
(54.7695 0 0)
(55.2751 0 0)
(55.7822 0 0)
(56.2909 0 0)
(56.8012 0 0)
(57.313 0 0)
(57.8265 0 0)
(58.3416 0 0)
(58.8584 0 0)
(59.377 0 0)
(59.897 0 0)
(60.4194 0 0)
(60.9426 0 0)
(61.4691 0 0)
(61.9953 0 0)
(62.5266 0 0)
(63.0553 0 0)
(63.5922 0 0)
(64.1228 0 0)
(64.6661 0 0)
(65.1985 0 0)
(65.7483 0 0)
(66.2831 0 0)
(66.8386 0 0)
(67.3774 0 0)
(67.9373 0 0)
(68.4815 0 0)
(69.0454 0 0)
(69.595 0 0)
(70.1639 0 0)
(70.7182 0 0)
(71.2929 0 0)
(71.8524 0 0)
(72.4326 0 0)
(72.9981 0 0)
(73.5831 0 0)
(74.1556 0 0)
(74.746 0 0)
(75.3248 0 0)
(75.9216 0 0)
(76.507 0 0)
(77.11 0 0)
(77.703 0 0)
(78.312 0 0)
(78.9127 0 0)
(79.5285 0 0)
(80.137 0 0)
(80.7584 0 0)
(81.3759 0 0)
(82.0004 0 0)
(82.6266 0 0)
(83.2485 0 0)
(83.882 0 0)
(84.4869 0 0)
(85.1288 0 0)
(85.6917 0 0)
(86.3359 0 0)
(86.8517 0 0)
(87.524 0 0)
(87.9964 0 0)
(88.7188 0 0)
(89.1522 0 0)
(89.9251 0 0)
(90.329 0 0)
(91.1296 0 0)
(91.5278 0 0)
(92.3278 0 0)
(92.7297 0 0)
(93.5299 0 0)
(93.9302 0 0)
(94.7339 0 0)
(95.1366 0 0)
(95.9429 0 0)
(96.3463 0 0)
(97.1551 0 0)
(97.5594 0 0)
(98.3691 0 0)
(98.7738 0 0)
(99.5848 0 0)
(99.9903 0 0)
(100.803 0 0)
(101.209 0 0)
(102.022 0 0)
(102.428 0 0)
(103.242 0 0)
(103.648 0 0)
(104.462 0 0)
(104.869 0 0)
(105.683 0 0)
(106.089 0 0)
(106.903 0 0)
(107.309 0 0)
(108.121 0 0)
(108.527 0 0)
(109.338 0 0)
(109.743 0 0)
(110.553 0 0)
(110.956 0 0)
(111.765 0 0)
(112.167 0 0)
(112.972 0 0)
(113.373 0 0)
(114.175 0 0)
(114.574 0 0)
(115.373 0 0)
(115.771 0 0)
(116.562 0 0)
(116.965 0 0)
(117.74 0 0)
(118.15 0 0)
(118.91 0 0)
(119.323 0 0)
(120.072 0 0)
(120.486 0 0)
(121.22 0 0)
(121.638 0 0)
(122.355 0 0)
(122.773 0 0)
(123.476 0 0)
(123.892 0 0)
(124.577 0 0)
(124.992 0 0)
(125.658 0 0)
(126.069 0 0)
(126.715 0 0)
(127.12 0 0)
(127.745 0 0)
(128.144 0 0)
(128.746 0 0)
(129.136 0 0)
(129.713 0 0)
(130.092 0 0)
(130.641 0 0)
(131.007 0 0)
(131.526 0 0)
(131.876 0 0)
(132.362 0 0)
(132.694 0 0)
(133.144 0 0)
(133.454 0 0)
(133.863 0 0)
(134.146 0 0)
(134.51 0 0)
(134.762 0 0)
(135.077 0 0)
(135.295 0 0)
(135.561 0 0)
(135.748 0 0)
(135.972 0 0)
(136.145 0 0)
(136.358 0 0)
(136.578 0 0)
(137.935 0 0)
)
;

boundaryField
{
    sideLeft
    {
        type            symmetryPlane;
    }
    sideRight
    {
        type            myWaveTransmissive;
        phi             phi.air;
        rho             rho.air;
        psi             thermo:psi.air;
        gamma           1.4;
        fieldInf        (0 0 0);
        lInf            10;
        value           uniform (137.5 0 0);
    }
    topbottom
    {
        type            empty;
    }
    frontback
    {
        type            empty;
    }
}


// ************************************************************************* //
