/*--------------------------------*- C++ -*----------------------------------*\
| =========                 |                                                 |
| \\      /  F ield         | OpenFOAM: The Open Source CFD Toolbox           |
|  \\    /   O peration     | Version:  2.4.0                                 |
|   \\  /    A nd           | Web:      www.OpenFOAM.org                      |
|    \\/     M anipulation  |                                                 |
\*---------------------------------------------------------------------------*/
FoamFile
{
    version     2.0;
    format      ascii;
    class       volVectorField;
    location    "0.09";
    object      U.waterMean;
}
// * * * * * * * * * * * * * * * * * * * * * * * * * * * * * * * * * * * * * //

dimensions      [0 1 -1 0 0 0 0];

internalField   nonuniform List<vector> 
1000
(
(-7.92329e-14 0 0)
(-4.20011e-14 0 0)
(-8.33307e-14 0 0)
(-5.64015e-14 0 0)
(-1.13679e-13 0 0)
(-4.86251e-14 0 0)
(-1.06755e-13 0 0)
(-8.02046e-14 0 0)
(-9.80391e-14 0 0)
(-9.36891e-14 0 0)
(-1.16229e-13 0 0)
(-1.32342e-13 0 0)
(-8.70023e-14 0 0)
(-1.52103e-13 0 0)
(-6.27885e-14 0 0)
(-1.22434e-13 0 0)
(-5.54935e-14 0 0)
(-9.97759e-14 0 0)
(-4.98961e-14 0 0)
(-1.21487e-13 0 0)
(-3.63959e-14 0 0)
(-1.07308e-13 0 0)
(-8.66469e-14 0 0)
(-1.10647e-13 0 0)
(-1.36748e-13 0 0)
(-1.15345e-13 0 0)
(-1.20611e-13 0 0)
(-1.08018e-13 0 0)
(-1.61553e-13 0 0)
(-8.37891e-14 0 0)
(-1.34419e-13 0 0)
(-1.26295e-13 0 0)
(-1.03858e-13 0 0)
(-1.14934e-13 0 0)
(-7.05651e-14 0 0)
(-1.62098e-13 0 0)
(-2.06457e-14 0 0)
(-1.20231e-13 0 0)
(-4.97225e-14 0 0)
(-1.19876e-13 0 0)
(-4.33118e-14 0 0)
(-1.06257e-13 0 0)
(-7.17333e-14 0 0)
(-8.82177e-14 0 0)
(-4.48196e-14 0 0)
(-6.00014e-14 0 0)
(-6.07593e-14 0 0)
(-7.14017e-14 0 0)
(-7.31938e-14 0 0)
(-7.32018e-14 0 0)
(-1.08752e-13 0 0)
(-5.21462e-14 0 0)
(-8.00148e-14 0 0)
(-2.66771e-14 0 0)
(-6.36566e-14 0 0)
(-3.76588e-14 0 0)
(-4.93907e-14 0 0)
(-4.02088e-14 0 0)
(-6.2583e-14 0 0)
(-3.34746e-14 0 0)
(-6.48013e-14 0 0)
(-9.31773e-16 0 0)
(-2.404e-14 0 0)
(-2.06136e-14 0 0)
(-1.0224e-14 0 0)
(-4.75269e-15 0 0)
(1.34291e-14 0 0)
(1.10529e-14 0 0)
(-8.88166e-15 0 0)
(2.05818e-14 0 0)
(-1.66423e-14 0 0)
(-6.66352e-15 0 0)
(-5.21299e-14 0 0)
(-1.01372e-14 0 0)
(-3.26771e-14 0 0)
(-6.45723e-14 0 0)
(-2.6472e-14 0 0)
(-8.57781e-14 0 0)
(-6.43199e-14 0 0)
(-5.08748e-14 0 0)
(-5.01565e-14 0 0)
(-3.81325e-14 0 0)
(-4.29641e-14 0 0)
(-2.49086e-14 0 0)
(-7.93201e-14 0 0)
(-4.58065e-14 0 0)
(-1.01907e-13 0 0)
(-5.27541e-14 0 0)
(-9.86786e-14 0 0)
(-1.12518e-13 0 0)
(-8.15941e-14 0 0)
(-9.17942e-14 0 0)
(-1.00463e-13 0 0)
(-7.37939e-14 0 0)
(-9.77627e-14 0 0)
(-4.6004e-14 0 0)
(-1.25024e-13 0 0)
(-3.85591e-14 0 0)
(-1.16505e-13 0 0)
(-8.9418e-14 0 0)
(-1.23532e-13 0 0)
(-1.2324e-13 0 0)
(-1.33653e-13 0 0)
(-1.30227e-13 0 0)
(-1.34324e-13 0 0)
(-1.61522e-13 0 0)
(-1.26556e-13 0 0)
(-1.66559e-13 0 0)
(-1.98549e-13 0 0)
(-1.58925e-13 0 0)
(-2.10463e-13 0 0)
(-1.67562e-13 0 0)
(-2.13526e-13 0 0)
(-1.8797e-13 0 0)
(-2.22921e-13 0 0)
(-1.99268e-13 0 0)
(-1.87362e-13 0 0)
(-1.52254e-13 0 0)
(-1.47943e-13 0 0)
(-1.69693e-13 0 0)
(-1.26737e-13 0 0)
(-1.37822e-13 0 0)
(-9.10837e-14 0 0)
(-1.31561e-13 0 0)
(-1.01292e-13 0 0)
(-1.39645e-13 0 0)
(-1.05571e-13 0 0)
(-1.50643e-13 0 0)
(-9.13366e-14 0 0)
(-1.85341e-13 0 0)
(-1.05634e-13 0 0)
(-1.95549e-13 0 0)
(-1.43774e-13 0 0)
(-1.59233e-13 0 0)
(-1.10284e-13 0 0)
(-1.4454e-13 0 0)
(-1.19576e-13 0 0)
(-1.23319e-13 0 0)
(-8.83601e-14 0 0)
(-1.16568e-13 0 0)
(-1.07892e-13 0 0)
(-9.16602e-14 0 0)
(-1.44706e-13 0 0)
(-9.3105e-14 0 0)
(-1.54259e-13 0 0)
(-9.99577e-14 0 0)
(-1.2654e-13 0 0)
(-1.27661e-13 0 0)
(-1.16742e-13 0 0)
(-1.31214e-13 0 0)
(-1.37916e-13 0 0)
(-1.53469e-13 0 0)
(-1.50185e-13 0 0)
(-1.63788e-13 0 0)
(-1.32572e-13 0 0)
(-1.38714e-13 0 0)
(-1.32745e-13 0 0)
(-1.31798e-13 0 0)
(-1.3858e-13 0 0)
(-1.1934e-13 0 0)
(-1.45582e-13 0 0)
(-6.92071e-14 0 0)
(-1.11523e-13 0 0)
(-4.86013e-14 0 0)
(-8.65124e-14 0 0)
(-2.98508e-14 0 0)
(-8.79809e-14 0 0)
(-3.92695e-14 0 0)
(-9.7439e-14 0 0)
(-7.46385e-14 0 0)
(-7.74492e-14 0 0)
(-5.95672e-14 0 0)
(-9.63732e-14 0 0)
(-6.65464e-14 0 0)
(-1.11342e-13 0 0)
(-6.04201e-14 0 0)
(-1.19355e-13 0 0)
(-7.75204e-14 0 0)
(-1.31442e-13 0 0)
(-1.26042e-13 0 0)
(-9.77865e-14 0 0)
(-9.22522e-14 0 0)
(-6.53779e-14 0 0)
(-1.26326e-13 0 0)
(-5.83359e-14 0 0)
(-1.19442e-13 0 0)
(-5.7207e-14 0 0)
(-1.6224e-13 0 0)
(-3.25986e-14 0 0)
(-1.30534e-13 0 0)
(-3.38063e-14 0 0)
(-1.09305e-13 0 0)
(-4.69118e-14 0 0)
(-9.286e-14 0 0)
(-7.6857e-14 0 0)
(-9.13837e-14 0 0)
(-9.21179e-14 0 0)
(-7.73861e-14 0 0)
(-7.55386e-14 0 0)
(-1.03194e-13 0 0)
(-6.79912e-14 0 0)
(-1.37569e-13 0 0)
(-6.2528e-14 0 0)
(-1.12739e-13 0 0)
(-8.48073e-14 0 0)
(-8.2336e-14 0 0)
(-5.02355e-14 0 0)
(-5.52565e-14 0 0)
(-7.81438e-14 0 0)
(-4.373e-14 0 0)
(-4.27905e-14 0 0)
(-2.25637e-14 0 0)
(-4.94932e-14 0 0)
(1.09738e-14 0 0)
(-2.33925e-14 0 0)
(2.50662e-14 0 0)
(-5.32897e-15 0 0)
(1.00263e-15 0 0)
(7.0108e-15 0 0)
(2.60294e-14 0 0)
(2.5169e-14 0 0)
(1.38872e-14 0 0)
(2.80743e-14 0 0)
(2.16311e-15 0 0)
(-1.74397e-14 0 0)
(4.83942e-15 0 0)
(7.70538e-15 0 0)
(-4.20165e-14 0 0)
(1.64133e-14 0 0)
(-2.96453e-14 0 0)
(-3.25981e-14 0 0)
(-3.96799e-14 0 0)
(-4.37456e-14 0 0)
(-5.18712e-15 0 0)
(-4.30745e-14 0 0)
(3.20058e-14 0 0)
(-2.73557e-14 0 0)
(2.4482e-14 0 0)
(-3.25902e-14 0 0)
(-1.1487e-14 0 0)
(9.26855e-15 0 0)
(2.70321e-14 0 0)
(-3.5132e-14 0 0)
(7.98568e-14 0 0)
(2.24613e-14 0 0)
(5.303e-14 0 0)
(1.77558e-14 0 0)
(5.79092e-14 0 0)
(4.28142e-14 0 0)
(7.95254e-14 0 0)
(8.33468e-14 0 0)
(9.21493e-14 0 0)
(8.34414e-14 0 0)
(3.60168e-14 0 0)
(9.07361e-14 0 0)
(2.63377e-14 0 0)
(9.44704e-14 0 0)
(4.78355e-14 0 0)
(7.73463e-14 0 0)
(2.19404e-14 0 0)
(8.41595e-14 0 0)
(4.8183e-14 0 0)
(8.08754e-14 0 0)
(6.09488e-14 0 0)
(3.20298e-14 0 0)
(5.58801e-14 0 0)
(-1.11157e-14 0 0)
(8.65517e-14 0 0)
(2.65903e-14 0 0)
(7.67543e-14 0 0)
(3.00877e-14 0 0)
(7.30516e-14 0 0)
(3.1035e-14 0 0)
(5.79724e-14 0 0)
(3.84641e-14 0 0)
(7.10147e-14 0 0)
(3.02615e-14 0 0)
(1.10765e-13 0 0)
(5.90227e-14 0 0)
(1.14808e-13 0 0)
(1.025e-13 0 0)
(1.43656e-13 0 0)
(1.39835e-13 0 0)
(7.3589e-14 0 0)
(1.69464e-13 0 0)
(1.17153e-13 0 0)
(1.36471e-13 0 0)
(1.3449e-13 0 0)
(1.4064e-13 0 0)
(1.14074e-13 0 0)
(1.2849e-13 0 0)
(1.19971e-13 0 0)
(1.41382e-13 0 0)
(8.93707e-14 0 0)
(1.55269e-13 0 0)
(1.11011e-13 0 0)
(1.35666e-13 0 0)
(1.58561e-13 0 0)
(1.76065e-13 0 0)
(1.35682e-13 0 0)
(1.88152e-13 0 0)
(1.64104e-13 0 0)
(1.61585e-13 0 0)
(1.80115e-13 0 0)
(1.23201e-13 0 0)
(1.90915e-13 0 0)
(1.3003e-13 0 0)
(1.32334e-13 0 0)
(1.2129e-13 0 0)
(9.01285e-14 0 0)
(1.05689e-13 0 0)
(8.02914e-14 0 0)
(8.75704e-14 0 0)
(7.37071e-14 0 0)
(1.08073e-13 0 0)
(9.28206e-14 0 0)
(1.05523e-13 0 0)
(8.50678e-14 0 0)
(7.81913e-14 0 0)
(1.13008e-13 0 0)
(8.87152e-14 0 0)
(7.93125e-14 0 0)
(1.10244e-13 0 0)
(7.08255e-14 0 0)
(1.20729e-13 0 0)
(6.60174e-14 0 0)
(6.46121e-14 0 0)
(7.43858e-14 0 0)
(5.71119e-14 0 0)
(5.44592e-14 0 0)
(7.96203e-14 0 0)
(8.37808e-14 0 0)
(4.31617e-14 0 0)
(9.68546e-14 0 0)
(4.82303e-14 0 0)
(8.9915e-14 0 0)
(4.04063e-14 0 0)
(2.83429e-14 0 0)
(4.15588e-14 0 0)
(4.14562e-14 0 0)
(6.43514e-14 0 0)
(3.63798e-14 0 0)
(4.80089e-14 0 0)
(1.01294e-14 0 0)
(5.18141e-14 0 0)
(-3.67426e-14 0 0)
(3.92532e-14 0 0)
(-3.44136e-14 0 0)
(4.01033e-15 0 0)
(-4.03429e-14 0 0)
(-2.82323e-14 0 0)
(-2.42216e-14 0 0)
(-2.52085e-14 0 0)
(-4.44088e-14 0 0)
(3.3947e-15 0 0)
(-1.66426e-14 0 0)
(-5.02351e-14 0 0)
(-5.45559e-15 0 0)
(-1.29396e-14 0 0)
(7.0501e-15 0 0)
(-1.29479e-15 0 0)
(-2.40954e-14 0 0)
(-4.20403e-14 0 0)
(-2.37873e-14 0 0)
(-1.93742e-14 0 0)
(-1.51594e-15 0 0)
(-6.29697e-14 0 0)
(-1.42189e-14 0 0)
(-5.41748e-14 0 0)
(-2.60769e-14 0 0)
(-3.58429e-14 0 0)
(-1.22294e-14 0 0)
(-4.90036e-14 0 0)
(-3.82127e-15 0 0)
(-2.94794e-14 0 0)
(1.89555e-14 0 0)
(-4.27104e-15 0 0)
(4.30587e-14 0 0)
(-2.32898e-14 0 0)
(5.96774e-14 0 0)
(-5.78666e-15 0 0)
(4.32481e-14 0 0)
(5.99234e-15 0 0)
(-1.10134e-14 0 0)
(3.4893e-15 0 0)
(-7.99435e-14 0 0)
(3.26056e-14 0 0)
(-5.89352e-14 0 0)
(6.86824e-15 0 0)
(-6.12959e-14 0 0)
(-2.45849e-14 0 0)
(-3.96482e-14 0 0)
(-1.29489e-15 0 0)
(-5.9559e-14 0 0)
(2.34397e-14 0 0)
(-3.19979e-14 0 0)
(2.31004e-14 0 0)
(-1.3403e-16 0 0)
(6.66645e-14 0 0)
(3.66324e-14 0 0)
(5.22248e-14 0 0)
(4.33273e-14 0 0)
(3.00821e-15 0 0)
(6.24091e-14 0 0)
(2.64796e-14 0 0)
(3.97352e-14 0 0)
(5.69854e-14 0 0)
(5.40486e-14 0 0)
(1.38715e-14 0 0)
(6.36882e-14 0 0)
(2.62271e-14 0 0)
(7.20647e-14 0 0)
(2.25875e-14 0 0)
(5.54302e-14 0 0)
(3.19112e-14 0 0)
(3.17298e-14 0 0)
(2.39768e-14 0 0)
(5.08273e-14 0 0)
(-4.30742e-14 0 0)
(8.72305e-14 0 0)
(1.595e-15 0 0)
(4.17324e-14 0 0)
(1.93034e-14 0 0)
(7.74094e-14 0 0)
(4.98802e-14 0 0)
(3.64667e-14 0 0)
(7.32332e-14 0 0)
(3.10508e-14 0 0)
(6.17776e-14 0 0)
(3.24089e-14 0 0)
(7.62805e-14 0 0)
(6.342e-14 0 0)
(5.57067e-14 0 0)
(9.83153e-14 0 0)
(9.34126e-14 0 0)
(6.46752e-14 0 0)
(7.04858e-14 0 0)
(7.26353e-15 0 0)
(5.54853e-14 0 0)
(-2.6574e-14 0 0)
(6.82512e-14 0 0)
(-1.41893e-16 0 0)
(4.538e-14 0 0)
(3.48324e-14 0 0)
(2.98271e-14 0 0)
(4.99274e-14 0 0)
(2.20191e-14 0 0)
(6.52356e-14 0 0)
(2.9227e-14 0 0)
(4.40142e-14 0 0)
(2.11979e-14 0 0)
(7.41342e-15 0 0)
(5.38511e-14 0 0)
(4.73142e-14 0 0)
(2.7285e-14 0 0)
(4.86483e-14 0 0)
(4.46695e-14 0 0)
(8.75559e-15 0 0)
(5.468e-14 0 0)
(-3.75005e-14 0 0)
(5.66141e-14 0 0)
(-3.96322e-14 0 0)
(2.32187e-14 0 0)
(-5.56353e-14 0 0)
(-7.20036e-15 0 0)
(-7.71806e-14 0 0)
(-3.97194e-14 0 0)
(-7.53253e-14 0 0)
(-2.28244e-14 0 0)
(-5.70722e-14 0 0)
(-5.9212e-14 0 0)
(-5.97801e-14 0 0)
(-3.52825e-14 0 0)
(-4.31774e-14 0 0)
(-6.89304e-14 0 0)
(-5.41672e-14 0 0)
(-7.61778e-14 0 0)
(-2.70167e-14 0 0)
(-9.97442e-14 0 0)
(-2.75534e-14 0 0)
(-4.75353e-14 0 0)
(-2.40875e-14 0 0)
(-7.00356e-14 0 0)
(-1.69761e-15 0 0)
(-3.31665e-14 0 0)
(-3.35297e-14 0 0)
(-3.76036e-14 0 0)
(-4.08562e-14 0 0)
(-7.44884e-14 0 0)
(-1.44241e-14 0 0)
(-3.76667e-14 0 0)
(-4.94222e-14 0 0)
(-3.41377e-14 0 0)
(-3.70745e-14 0 0)
(-1.45898e-14 0 0)
(7.49217e-15 0 0)
(-3.94738e-16 0 0)
(-2.16162e-14 0 0)
(8.70023e-15 0 0)
(6.55258e-16 0 0)
(3.02769e-14 0 0)
(1.38871e-14 0 0)
(-8.29749e-15 0 0)
(1.75346e-14 0 0)
(-1.16923e-14 0 0)
(2.38425e-14 0 0)
(-3.22426e-14 0 0)
(3.22899e-14 0 0)
(-5.09061e-14 0 0)
(4.20165e-14 0 0)
(-3.18321e-14 0 0)
(1.95714e-14 0 0)
(-3.17373e-15 0 0)
(7.35805e-15 0 0)
(-1.68154e-15 0 0)
(2.57057e-14 0 0)
(1.82768e-14 0 0)
(4.63668e-14 0 0)
(6.52278e-14 0 0)
(3.07271e-14 0 0)
(6.93805e-14 0 0)
(1.2253e-14 0 0)
(7.80885e-14 0 0)
(2.74665e-14 0 0)
(8.85177e-14 0 0)
(5.13723e-14 0 0)
(7.09989e-14 0 0)
(4.20486e-14 0 0)
(9.71783e-14 0 0)
(2.2635e-14 0 0)
(5.41352e-14 0 0)
(2.56429e-14 0 0)
(2.84848e-14 0 0)
(2.99614e-14 0 0)
(5.65196e-14 0 0)
(4.82696e-14 0 0)
(5.6717e-14 0 0)
(4.3422e-14 0 0)
(1.48899e-14 0 0)
(4.07061e-14 0 0)
(1.20162e-14 0 0)
(1.51344e-14 0 0)
(-2.76132e-16 0 0)
(2.34241e-14 0 0)
(1.57978e-14 0 0)
(-1.50477e-14 0 0)
(3.34901e-14 0 0)
(-1.03186e-14 0 0)
(6.45807e-15 0 0)
(-7.46857e-15 0 0)
(1.86872e-14 0 0)
(1.50011e-15 0 0)
(2.80033e-14 0 0)
(2.27453e-14 0 0)
(5.42459e-14 0 0)
(4.86643e-14 0 0)
(4.76932e-14 0 0)
(6.90254e-14 0 0)
(7.46542e-14 0 0)
(7.93439e-14 0 0)
(5.4033e-14 0 0)
(1.02073e-13 0 0)
(6.73912e-14 0 0)
(8.54229e-14 0 0)
(5.67408e-14 0 0)
(1.00268e-14 0 0)
(9.66967e-14 0 0)
(4.60196e-14 0 0)
(8.13966e-14 0 0)
(4.85933e-14 0 0)
(1.02294e-13 0 0)
(4.89407e-14 0 0)
(5.28722e-14 0 0)
(1.80479e-14 0 0)
(5.9275e-14 0 0)
(2.81139e-14 0 0)
(5.01327e-14 0 0)
(4.88853e-14 0 0)
(-1.20238e-14 0 0)
(4.16456e-14 0 0)
(-8.10804e-15 0 0)
(3.58508e-14 0 0)
(7.11345e-15 0 0)
(4.50404e-14 0 0)
(-2.01082e-14 0 0)
(3.27085e-14 0 0)
(-2.67872e-14 0 0)
(3.31111e-14 0 0)
(-3.56217e-14 0 0)
(1.12895e-14 0 0)
(-5.20983e-14 0 0)
(3.2282e-14 0 0)
(-4.3864e-14 0 0)
(1.83003e-14 0 0)
(-3.9664e-14 0 0)
(-3.36329e-15 0 0)
(-6.95528e-15 0 0)
(3.56454e-14 0 0)
(1.76293e-14 0 0)
(-8.13951e-15 0 0)
(4.16455e-14 0 0)
(7.47652e-15 0 0)
(4.35806e-15 0 0)
(1.61842e-15 0 0)
(2.88157e-15 0 0)
(-3.91428e-14 0 0)
(-6.01611e-15 0 0)
(-5.58091e-14 0 0)
(-4.57353e-14 0 0)
(-5.21932e-14 0 0)
(-2.78534e-14 0 0)
(-5.20749e-14 0 0)
(-6.27803e-14 0 0)
(-4.7938e-14 0 0)
(-5.83513e-14 0 0)
(-2.82246e-14 0 0)
(-9.87966e-14 0 0)
(8.23386e-15 0 0)
(-6.37433e-14 0 0)
(-4.95327e-14 0 0)
(-6.36645e-14 0 0)
(-5.30856e-14 0 0)
(-5.10327e-14 0 0)
(-3.39798e-14 0 0)
(-6.78962e-14 0 0)
(-2.67008e-14 0 0)
(-7.59411e-14 0 0)
(-5.34408e-14 0 0)
(-9.73521e-14 0 0)
(-6.34437e-14 0 0)
(-8.1894e-14 0 0)
(-7.66596e-14 0 0)
(-8.01652e-14 0 0)
(-1.30858e-13 0 0)
(-9.69026e-14 0 0)
(-1.93433e-13 0 0)
(-6.93969e-14 0 0)
(-1.56485e-13 0 0)
(-1.06755e-13 0 0)
(-1.53414e-13 0 0)
(-9.57419e-14 0 0)
(-1.42171e-13 0 0)
(-7.81441e-14 0 0)
(-1.16545e-13 0 0)
(-8.60862e-14 0 0)
(-1.00786e-13 0 0)
(-4.00669e-14 0 0)
(-4.67458e-14 0 0)
(-3.28822e-14 0 0)
(-1.0966e-14 0 0)
(4.00745e-14 0 0)
(6.32147e-14 0 0)
(1.43451e-13 0 0)
(2.61266e-13 0 0)
(4.25529e-13 0 0)
(8.23242e-13 0 0)
(1.24029e-12 0 0)
(2.28934e-12 0 0)
(3.63989e-12 0 0)
(6.15716e-12 0 0)
(1.00624e-11 0 0)
(1.66551e-11 0 0)
(2.71317e-11 0 0)
(4.42347e-11 0 0)
(7.16296e-11 0 0)
(1.15674e-10 0 0)
(1.8571e-10 0 0)
(2.97008e-10 0 0)
(4.72796e-10 0 0)
(7.49271e-10 0 0)
(1.18186e-09 0 0)
(1.85569e-09 0 0)
(2.90017e-09 0 0)
(4.51139e-09 0 0)
(6.98468e-09 0 0)
(1.07627e-08 0 0)
(1.65053e-08 0 0)
(2.51904e-08 0 0)
(3.82598e-08 0 0)
(5.78272e-08 0 0)
(8.69739e-08 0 0)
(1.30166e-07 0 0)
(1.9384e-07 0 0)
(2.87219e-07 0 0)
(4.23437e-07 0 0)
(6.21094e-07 0 0)
(9.06367e-07 0 0)
(1.31587e-06 0 0)
(1.90051e-06 0 0)
(2.7306e-06 0 0)
(3.9027e-06 0 0)
(5.54848e-06 0 0)
(7.84641e-06 0 0)
(1.10368e-05 0 0)
(1.54408e-05 0 0)
(2.14854e-05 0 0)
(2.97335e-05 0 0)
(4.09228e-05 0 0)
(5.60127e-05 0 0)
(7.62426e-05 0 0)
(0.000103201 0 0)
(0.000138911 0 0)
(0.000185927 0 0)
(0.000247452 0 0)
(0.000327469 0 0)
(0.000430897 0 0)
(0.000563758 0 0)
(0.000733367 0 0)
(0.000948538 0 0)
(0.0012198 0 0)
(0.00155963 0 0)
(0.00198269 0 0)
(0.00250606 0 0)
(0.00314946 0 0)
(0.00393547 0 0)
(0.0048897 0 0)
(0.00604098 0 0)
(0.00742144 0 0)
(0.00906658 0 0)
(0.0110153 0 0)
(0.0133098 0 0)
(0.0159955 0 0)
(0.019121 0 0)
(0.0227373 0 0)
(0.0268984 0 0)
(0.0316599 0 0)
(0.0370795 0 0)
(0.043216 0 0)
(0.050129 0 0)
(0.0578785 0 0)
(0.0665244 0 0)
(0.0761257 0 0)
(0.0867408 0 0)
(0.0984262 0 0)
(0.111237 0 0)
(0.125226 0 0)
(0.140443 0 0)
(0.156935 0 0)
(0.174749 0 0)
(0.193925 0 0)
(0.214502 0 0)
(0.236517 0 0)
(0.260001 0 0)
(0.284985 0 0)
(0.311496 0 0)
(0.339559 0 0)
(0.369194 0 0)
(0.400422 0 0)
(0.43326 0 0)
(0.467722 0 0)
(0.503823 0 0)
(0.541573 0 0)
(0.580984 0 0)
(0.622063 0 0)
(0.66482 0 0)
(0.709261 0 0)
(0.755391 0 0)
(0.803217 0 0)
(0.852743 0 0)
(0.903974 0 0)
(0.956913 0 0)
(1.01156 0 0)
(1.06793 0 0)
(1.12602 0 0)
(1.18583 0 0)
(1.24736 0 0)
(1.31062 0 0)
(1.37562 0 0)
(1.44235 0 0)
(1.51082 0 0)
(1.58103 0 0)
(1.65298 0 0)
(1.72669 0 0)
(1.80214 0 0)
(1.87936 0 0)
(1.95833 0 0)
(2.03906 0 0)
(2.12156 0 0)
(2.20583 0 0)
(2.29188 0 0)
(2.37971 0 0)
(2.46933 0 0)
(2.56073 0 0)
(2.65393 0 0)
(2.74892 0 0)
(2.84572 0 0)
(2.94433 0 0)
(3.04475 0 0)
(3.147 0 0)
(3.25106 0 0)
(3.35696 0 0)
(3.4647 0 0)
(3.57428 0 0)
(3.6857 0 0)
(3.79898 0 0)
(3.91413 0 0)
(4.03113 0 0)
(4.15002 0 0)
(4.27078 0 0)
(4.39343 0 0)
(4.51797 0 0)
(4.64442 0 0)
(4.77277 0 0)
(4.90304 0 0)
(5.03522 0 0)
(5.16934 0 0)
(5.3054 0 0)
(5.44339 0 0)
(5.58334 0 0)
(5.72525 0 0)
(5.86912 0 0)
(6.01497 0 0)
(6.1628 0 0)
(6.31263 0 0)
(6.46445 0 0)
(6.61827 0 0)
(6.77411 0 0)
(6.93198 0 0)
(7.09187 0 0)
(7.25381 0 0)
(7.41779 0 0)
(7.58383 0 0)
(7.75194 0 0)
(7.92212 0 0)
(8.09439 0 0)
(8.26875 0 0)
(8.44521 0 0)
(8.62378 0 0)
(8.80448 0 0)
(8.98731 0 0)
(9.17228 0 0)
(9.3594 0 0)
(9.54869 0 0)
(9.74015 0 0)
(9.93379 0 0)
(10.1296 0 0)
(10.3277 0 0)
(10.5279 0 0)
(10.7304 0 0)
(10.9351 0 0)
(11.1421 0 0)
(11.3514 0 0)
(11.5629 0 0)
(11.7767 0 0)
(11.9928 0 0)
(12.2113 0 0)
(12.432 0 0)
(12.6551 0 0)
(12.8806 0 0)
(13.1084 0 0)
(13.3386 0 0)
(13.5712 0 0)
(13.8062 0 0)
(14.0437 0 0)
(14.2836 0 0)
(14.5259 0 0)
(14.7707 0 0)
(15.0181 0 0)
(15.2679 0 0)
(15.5202 0 0)
(15.7751 0 0)
(16.0325 0 0)
(16.2926 0 0)
(16.5551 0 0)
(16.8205 0 0)
(17.0882 0 0)
(17.3589 0 0)
(17.6318 0 0)
(17.908 0 0)
(18.1861 0 0)
(18.4679 0 0)
(18.7513 0 0)
(19.0388 0 0)
(19.3277 0 0)
(19.6209 0 0)
(19.9153 0 0)
(20.2144 0 0)
(20.5143 0 0)
(20.8193 0 0)
(21.125 0 0)
(21.4361 0 0)
(21.7475 0 0)
(22.0647 0 0)
(22.382 0 0)
(22.7055 0 0)
(23.0289 0 0)
(23.3587 0 0)
(23.6882 0 0)
(24.0245 0 0)
(24.3604 0 0)
(24.7032 0 0)
(25.0455 0 0)
(25.3949 0 0)
(25.7438 0 0)
(26.1 0 0)
(26.4555 0 0)
(26.8183 0 0)
(27.1803 0 0)
(27.5492 0 0)
(27.9165 0 0)
(28.2894 0 0)
(28.6631 0 0)
(29.0355 0 0)
(29.4107 0 0)
(29.7855 0 0)
(30.1667 0 0)
(30.5467 0 0)
(30.9367 0 0)
(31.322 0 0)
(31.7212 0 0)
(32.1104 0 0)
(32.5186 0 0)
(32.9111 0 0)
(33.3282 0 0)
(33.7241 0 0)
(34.1504 0 0)
(34.5497 0 0)
(34.9855 0 0)
(35.3883 0 0)
(35.8335 0 0)
(36.2398 0 0)
(36.6944 0 0)
(37.1041 0 0)
(37.5683 0 0)
(37.9814 0 0)
(38.4552 0 0)
(38.8718 0 0)
(39.3553 0 0)
(39.7753 0 0)
(40.2685 0 0)
(40.6919 0 0)
(41.1949 0 0)
(41.6218 0 0)
(42.1347 0 0)
(42.565 0 0)
(43.0878 0 0)
(43.5214 0 0)
(44.0543 0 0)
(44.4913 0 0)
(45.0342 0 0)
(45.4745 0 0)
(46.0276 0 0)
(46.4712 0 0)
(47.0345 0 0)
(47.4813 0 0)
(48.0549 0 0)
(48.5049 0 0)
(49.0888 0 0)
(49.542 0 0)
(50.1363 0 0)
(50.5925 0 0)
(51.1972 0 0)
(51.6565 0 0)
(52.2716 0 0)
(52.7339 0 0)
(53.3594 0 0)
(53.8246 0 0)
(54.4604 0 0)
(54.9287 0 0)
(55.5745 0 0)
(56.0458 0 0)
(56.7018 0 0)
(57.176 0 0)
(57.8418 0 0)
(58.3189 0 0)
(58.9946 0 0)
(59.4744 0 0)
(60.1597 0 0)
(60.6421 0 0)
(61.337 0 0)
(61.8217 0 0)
(62.5259 0 0)
(63.0128 0 0)
(63.7262 0 0)
(64.2148 0 0)
(64.9372 0 0)
(65.4272 0 0)
(66.1583 0 0)
(66.6493 0 0)
(67.3889 0 0)
(67.8803 0 0)
(68.6281 0 0)
(69.1194 0 0)
(69.875 0 0)
(70.3655 0 0)
(71.1285 0 0)
(71.6173 0 0)
(72.3874 0 0)
(72.8735 0 0)
(73.6501 0 0)
(74.1325 0 0)
(74.9151 0 0)
(75.3924 0 0)
(76.1805 0 0)
(76.6507 0 0)
(77.4447 0 0)
(77.9033 0 0)
(78.7048 0 0)
(79.1401 0 0)
(80.6612 0 0)
)
;

boundaryField
{
    sideLeft
    {
        type            symmetryPlane;
    }
    sideRight
    {
        type            calculated;
        value           uniform (80.6612 0 0);
    }
    topbottom
    {
        type            empty;
    }
    frontback
    {
        type            empty;
    }
}


// ************************************************************************* //
