/*--------------------------------*- C++ -*----------------------------------*\
| =========                 |                                                 |
| \\      /  F ield         | OpenFOAM: The Open Source CFD Toolbox           |
|  \\    /   O peration     | Version:  2.4.0                                 |
|   \\  /    A nd           | Web:      www.OpenFOAM.org                      |
|    \\/     M anipulation  |                                                 |
\*---------------------------------------------------------------------------*/
FoamFile
{
    version     2.0;
    format      ascii;
    class       volVectorField;
    location    "0.09";
    object      U.water;
}
// * * * * * * * * * * * * * * * * * * * * * * * * * * * * * * * * * * * * * //

dimensions      [0 1 -1 0 0 0 0];

internalField   nonuniform List<vector> 
1000
(
(-1.98951e-13 0 0)
(-3.41061e-13 0 0)
(-3.19744e-13 0 0)
(-2.27374e-13 0 0)
(5.54128e-19 0 0)
(1.91846e-13 0 0)
(2.20269e-13 0 0)
(1.49214e-13 0 0)
(1.98952e-13 0 0)
(2.62901e-13 0 0)
(2.27374e-13 0 0)
(2.27374e-13 0 0)
(2.84212e-14 0 0)
(5.68441e-14 0 0)
(9.23699e-14 0 0)
(1.91847e-13 0 0)
(4.97379e-13 0 0)
(5.7554e-13 0 0)
(6.6791e-13 0 0)
(4.8317e-13 0 0)
(3.62376e-13 0 0)
(2.13163e-13 0 0)
(1.20792e-13 0 0)
(-6.39488e-14 0 0)
(3.62377e-13 0 0)
(3.69482e-13 0 0)
(3.2685e-13 0 0)
(2.20268e-13 0 0)
(1.20793e-13 0 0)
(7.10537e-14 0 0)
(-1.77635e-13 0 0)
(-2.27374e-13 0 0)
(-5.18696e-13 0 0)
(-3.83693e-13 0 0)
(-2.41585e-13 0 0)
(-4.40535e-13 0 0)
(-4.8317e-13 0 0)
(-5.82644e-13 0 0)
(-6.11067e-13 0 0)
(-7.81596e-13 0 0)
(-4.8317e-13 0 0)
(-3.05533e-13 0 0)
(-3.97904e-13 0 0)
(-3.4106e-13 0 0)
(-1.84741e-13 0 0)
(-3.12639e-13 0 0)
(-1.20792e-13 0 0)
(-2.13163e-13 0 0)
(-4.12115e-13 0 0)
(-4.1922e-13 0 0)
(-3.33955e-13 0 0)
(7.10505e-15 0 0)
(8.52655e-14 0 0)
(-2.13166e-14 0 0)
(2.13166e-14 0 0)
(2.20268e-13 0 0)
(1.49214e-13 0 0)
(-7.10556e-15 0 0)
(-7.1054e-14 0 0)
(-1.06582e-13 0 0)
(-2.91322e-13 0 0)
(-1.84742e-13 0 0)
(-2.41584e-13 0 0)
(-1.98952e-13 0 0)
(7.10542e-15 0 0)
(-1.06581e-13 0 0)
(5.68433e-14 0 0)
(2.55795e-13 0 0)
(2.34479e-13 0 0)
(-5.68437e-14 0 0)
(-3.05533e-13 0 0)
(-1.84741e-13 0 0)
(-4.61852e-13 0 0)
(-6.75016e-13 0 0)
(-3.62377e-13 0 0)
(-2.55795e-13 0 0)
(-2.84218e-13 0 0)
(-3.69482e-13 0 0)
(-5.8975e-13 0 0)
(-5.61329e-13 0 0)
(-6.60805e-13 0 0)
(-2.70006e-13 0 0)
(4.97381e-14 0 0)
(-4.26329e-14 0 0)
(-2.629e-13 0 0)
(-3.62377e-13 0 0)
(-1.49214e-13 0 0)
(1.84741e-13 0 0)
(4.05009e-13 0 0)
(3.41061e-13 0 0)
(2.98428e-13 0 0)
(3.76588e-13 0 0)
(2.20268e-13 0 0)
(1.7053e-13 0 0)
(9.94762e-14 0 0)
(2.55795e-13 0 0)
(-2.8421e-14 0 0)
(1.56319e-13 0 0)
(4.47642e-13 0 0)
(3.26849e-13 0 0)
(8.52653e-14 0 0)
(1.91847e-13 0 0)
(2.20268e-13 0 0)
(2.98428e-13 0 0)
(4.26326e-13 0 0)
(3.33955e-13 0 0)
(6.82121e-13 0 0)
(1.16529e-12 0 0)
(1.03029e-12 0 0)
(7.74491e-13 0 0)
(7.10543e-13 0 0)
(7.24753e-13 0 0)
(2.34479e-13 0 0)
(-1.5632e-13 0 0)
(-1.63425e-13 0 0)
(2.34479e-13 0 0)
(1.13687e-13 0 0)
(-7.10544e-14 0 0)
(-2.55795e-13 0 0)
(-4.68958e-13 0 0)
(-2.13163e-13 0 0)
(-4.33431e-13 0 0)
(-5.25802e-13 0 0)
(-7.81597e-13 0 0)
(-6.96332e-13 0 0)
(-7.88702e-13 0 0)
(-8.2423e-13 0 0)
(-7.67386e-13 0 0)
(-5.40013e-13 0 0)
(-2.77111e-13 0 0)
(-2.3448e-13 0 0)
(-2.70006e-13 0 0)
(-2.8422e-14 0 0)
(4.97382e-14 0 0)
(1.49214e-13 0 0)
(-1.13687e-13 0 0)
(-3.62377e-13 0 0)
(-3.83693e-13 0 0)
(-4.1922e-13 0 0)
(-2.91322e-13 0 0)
(-7.10543e-14 0 0)
(-1.13687e-13 0 0)
(-7.10491e-15 0 0)
(4.26321e-14 0 0)
(-1.06581e-13 0 0)
(7.10539e-14 0 0)
(-2.06057e-13 0 0)
(-3.48166e-13 0 0)
(-4.05009e-13 0 0)
(-5.7554e-13 0 0)
(-7.03437e-13 0 0)
(-7.95808e-13 0 0)
(-6.75016e-13 0 0)
(-5.11591e-13 0 0)
(-5.25802e-13 0 0)
(-4.33431e-13 0 0)
(-4.05009e-13 0 0)
(-4.33431e-13 0 0)
(-4.9738e-13 0 0)
(-5.7554e-13 0 0)
(-5.8975e-13 0 0)
(-2.13163e-13 0 0)
(-2.84217e-13 0 0)
(-5.68439e-14 0 0)
(1.98952e-13 0 0)
(3.69482e-13 0 0)
(2.27374e-13 0 0)
(4.97375e-14 0 0)
(-1.13686e-13 0 0)
(-8.52652e-14 0 0)
(-2.77112e-13 0 0)
(-5.82645e-13 0 0)
(-7.24753e-13 0 0)
(-5.89751e-13 0 0)
(-6.46593e-13 0 0)
(-6.60805e-13 0 0)
(-8.52651e-13 0 0)
(-1.14397e-12 0 0)
(-1.20792e-12 0 0)
(-8.17124e-13 0 0)
(-5.82645e-13 0 0)
(-2.77112e-13 0 0)
(2.1316e-14 0 0)
(-2.34479e-13 0 0)
(-3.97905e-13 0 0)
(-6.18172e-13 0 0)
(-5.54224e-13 0 0)
(-7.17647e-13 0 0)
(-7.38965e-13 0 0)
(-7.81596e-13 0 0)
(-4.76064e-13 0 0)
(-4.76063e-13 0 0)
(-3.48166e-13 0 0)
(-8.24229e-13 0 0)
(-4.83169e-13 0 0)
(-3.33955e-13 0 0)
(-2.13163e-13 0 0)
(-1.49214e-13 0 0)
(-1.20792e-13 0 0)
(-1.77635e-13 0 0)
(-2.3448e-13 0 0)
(-2.55795e-13 0 0)
(-2.84218e-13 0 0)
(-2.27373e-13 0 0)
(-2.06057e-13 0 0)
(-2.41584e-13 0 0)
(-1.49214e-13 0 0)
(-6.39489e-14 0 0)
(-1.42106e-14 0 0)
(-2.41585e-13 0 0)
(-1.20792e-13 0 0)
(-2.13163e-13 0 0)
(-2.629e-13 0 0)
(-4.26329e-14 0 0)
(-4.1922e-13 0 0)
(-3.41061e-13 0 0)
(-9.23704e-14 0 0)
(1.06581e-13 0 0)
(2.4869e-13 0 0)
(2.98428e-13 0 0)
(4.76064e-13 0 0)
(6.6791e-13 0 0)
(4.61853e-13 0 0)
(5.7554e-13 0 0)
(6.46594e-13 0 0)
(5.82645e-13 0 0)
(7.38964e-13 0 0)
(6.89227e-13 0 0)
(6.25277e-13 0 0)
(5.89751e-13 0 0)
(5.18696e-13 0 0)
(4.90275e-13 0 0)
(5.04486e-13 0 0)
(4.61852e-13 0 0)
(2.98428e-13 0 0)
(4.26325e-13 0 0)
(4.26331e-14 0 0)
(-1.98952e-13 0 0)
(-1.63425e-13 0 0)
(-1.7053e-13 0 0)
(-5.68434e-13 0 0)
(-5.96856e-13 0 0)
(-3.69481e-13 0 0)
(-4.0501e-13 0 0)
(-4.76063e-13 0 0)
(-3.19745e-13 0 0)
(-4.97376e-14 0 0)
(-1.13687e-13 0 0)
(-9.23703e-14 0 0)
(-2.41585e-13 0 0)
(-4.12115e-13 0 0)
(-3.05533e-13 0 0)
(-2.77112e-13 0 0)
(-3.33955e-13 0 0)
(-4.9738e-13 0 0)
(-3.76587e-13 0 0)
(-4.68959e-13 0 0)
(-9.02389e-13 0 0)
(-7.31859e-13 0 0)
(-7.6028e-13 0 0)
(-5.61329e-13 0 0)
(-2.13162e-13 0 0)
(2.84214e-14 0 0)
(-1.77636e-13 0 0)
(-5.47118e-13 0 0)
(-6.32383e-13 0 0)
(-8.45545e-13 0 0)
(-8.81074e-13 0 0)
(-7.38964e-13 0 0)
(-3.41061e-13 0 0)
(-5.47118e-13 0 0)
(-4.61853e-13 0 0)
(-6.96332e-13 0 0)
(-5.68434e-13 0 0)
(-4.05009e-13 0 0)
(-4.19221e-13 0 0)
(-3.90798e-13 0 0)
(8.52645e-14 0 0)
(2.13167e-14 0 0)
(-4.97383e-14 0 0)
(-5.68432e-14 0 0)
(2.84215e-14 0 0)
(3.05533e-13 0 0)
(3.2685e-13 0 0)
(4.1922e-13 0 0)
(4.40537e-13 0 0)
(5.11591e-13 0 0)
(6.32383e-13 0 0)
(4.12115e-13 0 0)
(5.47118e-13 0 0)
(6.60805e-13 0 0)
(4.68958e-13 0 0)
(1.98952e-13 0 0)
(1.27898e-13 0 0)
(2.77111e-13 0 0)
(-1.42105e-14 0 0)
(-7.10542e-14 0 0)
(-5.68435e-14 0 0)
(3.55268e-14 0 0)
(6.39492e-14 0 0)
(3.83693e-13 0 0)
(3.69482e-13 0 0)
(4.05009e-13 0 0)
(2.629e-13 0 0)
(2.41585e-13 0 0)
(4.61852e-13 0 0)
(7.53176e-13 0 0)
(7.38964e-13 0 0)
(7.88702e-13 0 0)
(9.30811e-13 0 0)
(6.18172e-13 0 0)
(2.77112e-13 0 0)
(3.19744e-13 0 0)
(2.70006e-13 0 0)
(4.26325e-13 0 0)
(6.60805e-13 0 0)
(9.37916e-13 0 0)
(8.73968e-13 0 0)
(8.31335e-13 0 0)
(8.59756e-13 0 0)
(1.0445e-12 0 0)
(9.23706e-13 0 0)
(6.96332e-13 0 0)
(8.17125e-13 0 0)
(8.81073e-13 0 0)
(6.75016e-13 0 0)
(9.30811e-13 0 0)
(1.20082e-12 0 0)
(1.24345e-12 0 0)
(1.37845e-12 0 0)
(1.13687e-12 0 0)
(8.52651e-13 0 0)
(6.67911e-13 0 0)
(5.82645e-13 0 0)
(5.61329e-13 0 0)
(6.60804e-13 0 0)
(3.97904e-13 0 0)
(5.68434e-13 0 0)
(6.96332e-13 0 0)
(5.18696e-13 0 0)
(4.05009e-13 0 0)
(1.7053e-13 0 0)
(-1.63425e-13 0 0)
(2.13167e-14 0 0)
(1.13686e-13 0 0)
(-2.41584e-13 0 0)
(-4.19221e-13 0 0)
(-5.47117e-13 0 0)
(-5.40013e-13 0 0)
(-5.04485e-13 0 0)
(-5.40013e-13 0 0)
(-5.04485e-13 0 0)
(-3.48166e-13 0 0)
(-4.9738e-13 0 0)
(-7.10546e-14 0 0)
(-4.26326e-14 0 0)
(-9.94756e-14 0 0)
(1.20792e-13 0 0)
(2.70006e-13 0 0)
(2.84217e-13 0 0)
(8.5265e-14 0 0)
(7.81597e-14 0 0)
(7.10564e-15 0 0)
(1.56319e-13 0 0)
(3.33955e-13 0 0)
(3.33955e-13 0 0)
(-7.10538e-14 0 0)
(-2.91323e-13 0 0)
(-8.52648e-14 0 0)
(3.5527e-14 0 0)
(-2.41584e-13 0 0)
(-4.83169e-13 0 0)
(-3.83693e-13 0 0)
(-3.76588e-13 0 0)
(-4.9738e-13 0 0)
(-4.76064e-13 0 0)
(-4.90274e-13 0 0)
(-5.68435e-13 0 0)
(-4.26325e-13 0 0)
(-1.42115e-14 0 0)
(4.97385e-14 0 0)
(5.68431e-14 0 0)
(4.26326e-14 0 0)
(9.94761e-14 0 0)
(4.97376e-14 0 0)
(-7.1045e-15 0 0)
(-7.10552e-14 0 0)
(-1.35002e-13 0 0)
(-2.13163e-13 0 0)
(-1.49214e-13 0 0)
(4.12115e-13 0 0)
(5.7554e-13 0 0)
(5.47118e-13 0 0)
(3.2685e-13 0 0)
(2.91322e-13 0 0)
(1.70531e-13 0 0)
(1.42108e-13 0 0)
(-2.84213e-14 0 0)
(-8.52656e-14 0 0)
(-1.84741e-13 0 0)
(-1.35003e-13 0 0)
(9.23705e-14 0 0)
(1.20793e-13 0 0)
(-1.91847e-13 0 0)
(-5.04485e-13 0 0)
(-3.2685e-13 0 0)
(1.91846e-13 0 0)
(5.54223e-13 0 0)
(5.40013e-13 0 0)
(6.82121e-13 0 0)
(6.25278e-13 0 0)
(9.80549e-13 0 0)
(9.87655e-13 0 0)
(7.17648e-13 0 0)
(4.76064e-13 0 0)
(5.47118e-13 0 0)
(3.62377e-13 0 0)
(4.40536e-13 0 0)
(2.55796e-13 0 0)
(3.19743e-13 0 0)
(2.3448e-13 0 0)
(5.68434e-13 0 0)
(5.11591e-13 0 0)
(2.27373e-13 0 0)
(2.13163e-13 0 0)
(2.62901e-13 0 0)
(1.91846e-13 0 0)
(3.14264e-19 0 0)
(5.11591e-13 0 0)
(7.81597e-13 0 0)
(7.38964e-13 0 0)
(7.4607e-13 0 0)
(9.45022e-13 0 0)
(1.0516e-12 0 0)
(1.41398e-12 0 0)
(1.58451e-12 0 0)
(1.77636e-12 0 0)
(1.48503e-12 0 0)
(1.47793e-12 0 0)
(1.42819e-12 0 0)
(1.34293e-12 0 0)
(1.14397e-12 0 0)
(8.59757e-13 0 0)
(6.6791e-13 0 0)
(5.18696e-13 0 0)
(4.83169e-13 0 0)
(2.84217e-13 0 0)
(3.48166e-13 0 0)
(1.06582e-13 0 0)
(-7.81598e-14 0 0)
(1.42109e-13 0 0)
(2.20269e-13 0 0)
(2.13163e-13 0 0)
(-1.42109e-14 0 0)
(1.27898e-13 0 0)
(2.41584e-13 0 0)
(4.05009e-13 0 0)
(3.90799e-13 0 0)
(5.40012e-13 0 0)
(7.10544e-13 0 0)
(9.37916e-13 0 0)
(8.31336e-13 0 0)
(8.73967e-13 0 0)
(6.537e-13 0 0)
(8.24229e-13 0 0)
(6.67911e-13 0 0)
(5.75539e-13 0 0)
(5.18697e-13 0 0)
(5.40012e-13 0 0)
(7.38965e-13 0 0)
(7.88702e-13 0 0)
(7.74492e-13 0 0)
(8.52651e-13 0 0)
(9.166e-13 0 0)
(7.88703e-13 0 0)
(6.89226e-13 0 0)
(5.7554e-13 0 0)
(5.1159e-13 0 0)
(1.84742e-13 0 0)
(1.98952e-13 0 0)
(1.27898e-13 0 0)
(-1.20793e-13 0 0)
(-6.6791e-13 0 0)
(-6.67911e-13 0 0)
(-4.76063e-13 0 0)
(-3.69482e-13 0 0)
(-4.83169e-13 0 0)
(-5.68434e-13 0 0)
(-6.60804e-13 0 0)
(-7.81597e-13 0 0)
(-1.08002e-12 0 0)
(-1.25056e-12 0 0)
(-1.37135e-12 0 0)
(-1.15818e-12 0 0)
(-8.10019e-13 0 0)
(-2.98428e-13 0 0)
(-7.10543e-14 0 0)
(-2.84214e-14 0 0)
(-2.13165e-14 0 0)
(6.3949e-14 0 0)
(3.12639e-13 0 0)
(5.68433e-14 0 0)
(7.10567e-15 0 0)
(1.49214e-13 0 0)
(3.092e-19 0 0)
(-2.27374e-13 0 0)
(-3.12638e-13 0 0)
(-3.83694e-13 0 0)
(-5.8975e-13 0 0)
(-4.76064e-13 0 0)
(-7.24753e-13 0 0)
(-6.60805e-13 0 0)
(-5.8975e-13 0 0)
(-4.83169e-13 0 0)
(-5.8975e-13 0 0)
(-6.6791e-13 0 0)
(-5.8975e-13 0 0)
(-6.03961e-13 0 0)
(-4.26326e-13 0 0)
(-2.62901e-13 0 0)
(-2.91323e-13 0 0)
(-4.97379e-13 0 0)
(-3.48167e-13 0 0)
(-4.76063e-13 0 0)
(-2.13166e-14 0 0)
(7.10545e-14 0 0)
(-1.70531e-13 0 0)
(-1.56319e-13 0 0)
(-1.91847e-13 0 0)
(-3.69482e-13 0 0)
(-2.27374e-13 0 0)
(2.06058e-13 0 0)
(3.2685e-13 0 0)
(1.42109e-13 0 0)
(1.98952e-13 0 0)
(2.77112e-13 0 0)
(7.10541e-14 0 0)
(-4.9738e-14 0 0)
(-2.4869e-13 0 0)
(-1.91847e-13 0 0)
(-1.35003e-13 0 0)
(-3.05533e-13 0 0)
(-2.13161e-14 0 0)
(1.06581e-13 0 0)
(2.77112e-13 0 0)
(2.84217e-13 0 0)
(5.40012e-13 0 0)
(3.69483e-13 0 0)
(7.10537e-15 0 0)
(-4.26324e-14 0 0)
(-1.42111e-14 0 0)
(-1.42107e-14 0 0)
(2.70006e-13 0 0)
(3.41061e-13 0 0)
(4.12115e-13 0 0)
(3.2685e-13 0 0)
(5.11591e-13 0 0)
(6.60805e-13 0 0)
(6.25278e-13 0 0)
(8.10019e-13 0 0)
(7.95808e-13 0 0)
(7.38964e-13 0 0)
(3.12639e-13 0 0)
(1.56319e-13 0 0)
(1.20792e-13 0 0)
(9.23711e-14 0 0)
(4.97374e-14 0 0)
(-1.91846e-13 0 0)
(-1.13687e-13 0 0)
(-2.20268e-13 0 0)
(-1.70531e-13 0 0)
(-1.56319e-13 0 0)
(-3.33955e-13 0 0)
(-4.83169e-13 0 0)
(-2.77112e-13 0 0)
(-7.10521e-15 0 0)
(7.10541e-14 0 0)
(-2.27374e-13 0 0)
(-4.40536e-13 0 0)
(-3.12639e-13 0 0)
(-4.54747e-13 0 0)
(-3.12639e-13 0 0)
(-4.26325e-13 0 0)
(-2.70007e-13 0 0)
(-3.33955e-13 0 0)
(-3.48166e-13 0 0)
(-1.63424e-13 0 0)
(1.49213e-13 0 0)
(1.84742e-13 0 0)
(7.10538e-14 0 0)
(-1.49213e-13 0 0)
(-2.27374e-13 0 0)
(-2.34479e-13 0 0)
(-2.55796e-13 0 0)
(-5.47118e-13 0 0)
(-3.41061e-13 0 0)
(-2.34479e-13 0 0)
(-2.4869e-13 0 0)
(-3.55271e-13 0 0)
(-3.55271e-13 0 0)
(-3.55276e-14 0 0)
(-9.94759e-14 0 0)
(-1.35003e-13 0 0)
(-2.34479e-13 0 0)
(-3.05534e-13 0 0)
(-1.06581e-13 0 0)
(-1.77636e-13 0 0)
(2.13163e-13 0 0)
(5.82645e-13 0 0)
(5.40013e-13 0 0)
(5.11591e-13 0 0)
(6.11067e-13 0 0)
(5.32907e-13 0 0)
(4.26326e-13 0 0)
(5.25802e-13 0 0)
(5.8975e-13 0 0)
(5.18697e-13 0 0)
(5.47117e-13 0 0)
(6.03962e-13 0 0)
(5.47118e-13 0 0)
(4.47642e-13 0 0)
(5.68434e-14 0 0)
(-1.56319e-13 0 0)
(-1.27898e-13 0 0)
(-4.76063e-13 0 0)
(-7.53176e-13 0 0)
(-8.17124e-13 0 0)
(-9.52128e-13 0 0)
(-1.16529e-12 0 0)
(-1.03029e-12 0 0)
(-1.15108e-12 0 0)
(-1.22213e-12 0 0)
(-1.32161e-12 0 0)
(-1.10845e-12 0 0)
(-9.59233e-13 0 0)
(-8.45545e-13 0 0)
(-7.24755e-13 0 0)
(-8.10018e-13 0 0)
(-5.47118e-13 0 0)
(-4.97379e-13 0 0)
(-4.19221e-13 0 0)
(-2.98427e-13 0 0)
(-1.49214e-13 0 0)
(8.52654e-14 0 0)
(5.40012e-13 0 0)
(8.73968e-13 0 0)
(1.34293e-12 0 0)
(2.26663e-12 0 0)
(3.5314e-12 0 0)
(5.60618e-12 0 0)
(9.1589e-12 0 0)
(1.49853e-11 0 0)
(2.49045e-11 0 0)
(4.13039e-11 0 0)
(6.88871e-11 0 0)
(1.15321e-10 0 0)
(1.91946e-10 0 0)
(3.18074e-10 0 0)
(5.24501e-10 0 0)
(8.61142e-10 0 0)
(1.40793e-09 0 0)
(2.29199e-09 0 0)
(3.71281e-09 0 0)
(5.98734e-09 0 0)
(9.61145e-09 0 0)
(1.53584e-08 0 0)
(2.44283e-08 0 0)
(3.86748e-08 0 0)
(6.09437e-08 0 0)
(9.5583e-08 0 0)
(1.492e-07 0 0)
(2.31781e-07 0 0)
(3.58337e-07 0 0)
(5.51306e-07 0 0)
(8.44047e-07 0 0)
(1.28587e-06 0 0)
(1.94923e-06 0 0)
(2.94003e-06 0 0)
(4.41209e-06 0 0)
(6.58756e-06 0 0)
(9.78531e-06 0 0)
(1.44603e-05 0 0)
(2.12575e-05 0 0)
(3.10858e-05 0 0)
(4.5218e-05 0 0)
(6.54242e-05 0 0)
(9.41513e-05 0 0)
(0.000134758 0 0)
(0.000191826 0 0)
(0.000271559 0 0)
(0.000382299 0 0)
(0.00053519 0 0)
(0.000745003 0 0)
(0.00103118 0 0)
(0.00141911 0 0)
(0.00194172 0 0)
(0.00264134 0 0)
(0.00357199 0 0)
(0.00480204 0 0)
(0.00641729 0 0)
(0.00852451 0 0)
(0.0112554 0 0)
(0.014771 0 0)
(0.0192663 0 0)
(0.0249754 0 0)
(0.0321764 0 0)
(0.0411964 0 0)
(0.0524163 0 0)
(0.0662752 0 0)
(0.0832729 0 0)
(0.103973 0 0)
(0.129003 0 0)
(0.159053 0 0)
(0.194872 0 0)
(0.237264 0 0)
(0.287077 0 0)
(0.345198 0 0)
(0.412532 0 0)
(0.489997 0 0)
(0.578498 0 0)
(0.678919 0 0)
(0.792097 0 0)
(0.918808 0 0)
(1.05975 0 0)
(1.21553 0 0)
(1.38664 0 0)
(1.57346 0 0)
(1.77624 0 0)
(1.9951 0 0)
(2.23004 0 0)
(2.4809 0 0)
(2.74743 0 0)
(3.02925 0 0)
(3.32585 0 0)
(3.63666 0 0)
(3.96102 0 0)
(4.29819 0 0)
(4.64739 0 0)
(5.0078 0 0)
(5.37858 0 0)
(5.75889 0 0)
(6.14787 0 0)
(6.54471 0 0)
(6.94859 0 0)
(7.35876 0 0)
(7.77447 0 0)
(8.19506 0 0)
(8.61988 0 0)
(9.04835 0 0)
(9.47995 0 0)
(9.9142 0 0)
(10.3507 0 0)
(10.789 0 0)
(11.2289 0 0)
(11.6699 0 0)
(12.112 0 0)
(12.5549 0 0)
(12.9984 0 0)
(13.4424 0 0)
(13.8867 0 0)
(14.3314 0 0)
(14.7762 0 0)
(15.2212 0 0)
(15.6662 0 0)
(16.1114 0 0)
(16.5566 0 0)
(17.0019 0 0)
(17.4472 0 0)
(17.8926 0 0)
(18.338 0 0)
(18.7835 0 0)
(19.2291 0 0)
(19.6748 0 0)
(20.1206 0 0)
(20.5666 0 0)
(21.0127 0 0)
(21.4591 0 0)
(21.9056 0 0)
(22.3524 0 0)
(22.7994 0 0)
(23.2467 0 0)
(23.6944 0 0)
(24.1423 0 0)
(24.5906 0 0)
(25.0393 0 0)
(25.4884 0 0)
(25.938 0 0)
(26.3879 0 0)
(26.8384 0 0)
(27.2893 0 0)
(27.7407 0 0)
(28.1927 0 0)
(28.6452 0 0)
(29.0983 0 0)
(29.552 0 0)
(30.0062 0 0)
(30.4612 0 0)
(30.9167 0 0)
(31.3729 0 0)
(31.8298 0 0)
(32.2873 0 0)
(32.7456 0 0)
(33.2045 0 0)
(33.6642 0 0)
(34.1246 0 0)
(34.5858 0 0)
(35.0477 0 0)
(35.5104 0 0)
(35.9738 0 0)
(36.438 0 0)
(36.903 0 0)
(37.3688 0 0)
(37.8353 0 0)
(38.3027 0 0)
(38.7709 0 0)
(39.2399 0 0)
(39.7097 0 0)
(40.1803 0 0)
(40.6518 0 0)
(41.1242 0 0)
(41.5974 0 0)
(42.0715 0 0)
(42.5465 0 0)
(43.0224 0 0)
(43.4992 0 0)
(43.977 0 0)
(44.4557 0 0)
(44.9354 0 0)
(45.4161 0 0)
(45.8979 0 0)
(46.3806 0 0)
(46.8644 0 0)
(47.3493 0 0)
(47.8353 0 0)
(48.3225 0 0)
(48.8108 0 0)
(49.3002 0 0)
(49.7909 0 0)
(50.2828 0 0)
(50.776 0 0)
(51.2704 0 0)
(51.7661 0 0)
(52.2632 0 0)
(52.7617 0 0)
(53.2615 0 0)
(53.7627 0 0)
(54.2654 0 0)
(54.7695 0 0)
(55.2751 0 0)
(55.7823 0 0)
(56.291 0 0)
(56.8012 0 0)
(57.313 0 0)
(57.8265 0 0)
(58.3417 0 0)
(58.8584 0 0)
(59.377 0 0)
(59.897 0 0)
(60.4194 0 0)
(60.9427 0 0)
(61.4691 0 0)
(61.9954 0 0)
(62.5266 0 0)
(63.0553 0 0)
(63.5922 0 0)
(64.1229 0 0)
(64.6662 0 0)
(65.1985 0 0)
(65.7483 0 0)
(66.2832 0 0)
(66.8386 0 0)
(67.3774 0 0)
(67.9374 0 0)
(68.4815 0 0)
(69.0455 0 0)
(69.5951 0 0)
(70.164 0 0)
(70.7182 0 0)
(71.2929 0 0)
(71.8524 0 0)
(72.4326 0 0)
(72.9981 0 0)
(73.5831 0 0)
(74.1556 0 0)
(74.746 0 0)
(75.3248 0 0)
(75.9216 0 0)
(76.507 0 0)
(77.11 0 0)
(77.703 0 0)
(78.312 0 0)
(78.9127 0 0)
(79.5285 0 0)
(80.137 0 0)
(80.7585 0 0)
(81.3759 0 0)
(82.0004 0 0)
(82.6267 0 0)
(83.2486 0 0)
(83.882 0 0)
(84.4869 0 0)
(85.1288 0 0)
(85.6917 0 0)
(86.3359 0 0)
(86.8517 0 0)
(87.524 0 0)
(87.9964 0 0)
(88.7188 0 0)
(89.1522 0 0)
(89.9251 0 0)
(90.329 0 0)
(91.1297 0 0)
(91.5278 0 0)
(92.3278 0 0)
(92.7297 0 0)
(93.5299 0 0)
(93.9302 0 0)
(94.7339 0 0)
(95.1366 0 0)
(95.9429 0 0)
(96.3463 0 0)
(97.1551 0 0)
(97.5594 0 0)
(98.3691 0 0)
(98.7738 0 0)
(99.5848 0 0)
(99.9903 0 0)
(100.803 0 0)
(101.209 0 0)
(102.022 0 0)
(102.428 0 0)
(103.242 0 0)
(103.648 0 0)
(104.462 0 0)
(104.869 0 0)
(105.683 0 0)
(106.089 0 0)
(106.903 0 0)
(107.309 0 0)
(108.121 0 0)
(108.527 0 0)
(109.338 0 0)
(109.743 0 0)
(110.553 0 0)
(110.956 0 0)
(111.765 0 0)
(112.167 0 0)
(112.972 0 0)
(113.373 0 0)
(114.175 0 0)
(114.574 0 0)
(115.373 0 0)
(115.771 0 0)
(116.562 0 0)
(116.965 0 0)
(117.74 0 0)
(118.15 0 0)
(118.91 0 0)
(119.323 0 0)
(120.072 0 0)
(120.486 0 0)
(121.22 0 0)
(121.638 0 0)
(122.355 0 0)
(122.773 0 0)
(123.476 0 0)
(123.892 0 0)
(124.577 0 0)
(124.992 0 0)
(125.658 0 0)
(126.069 0 0)
(126.715 0 0)
(127.12 0 0)
(127.745 0 0)
(128.144 0 0)
(128.746 0 0)
(129.136 0 0)
(129.713 0 0)
(130.092 0 0)
(130.641 0 0)
(131.007 0 0)
(131.526 0 0)
(131.876 0 0)
(132.362 0 0)
(132.694 0 0)
(133.144 0 0)
(133.454 0 0)
(133.863 0 0)
(134.146 0 0)
(134.51 0 0)
(134.762 0 0)
(135.077 0 0)
(135.295 0 0)
(135.561 0 0)
(135.748 0 0)
(135.972 0 0)
(136.145 0 0)
(136.359 0 0)
(136.579 0 0)
(137.932 0 0)
)
;

boundaryField
{
    sideLeft
    {
        type            symmetryPlane;
    }
    sideRight
    {
        type            zeroGradient;
    }
    topbottom
    {
        type            empty;
    }
    frontback
    {
        type            empty;
    }
}


// ************************************************************************* //
