/*--------------------------------*- C++ -*----------------------------------*\
| =========                 |                                                 |
| \\      /  F ield         | OpenFOAM: The Open Source CFD Toolbox           |
|  \\    /   O peration     | Version:  2.4.0                                 |
|   \\  /    A nd           | Web:      www.OpenFOAM.org                      |
|    \\/     M anipulation  |                                                 |
\*---------------------------------------------------------------------------*/
FoamFile
{
    version     2.0;
    format      ascii;
    class       volVectorField;
    location    "0.09";
    object      Ur;
}
// * * * * * * * * * * * * * * * * * * * * * * * * * * * * * * * * * * * * * //

dimensions      [0 1 -1 0 0 0 0];

internalField   nonuniform List<vector> 
1000
(
(-1.42109e-14 0 0)
(7.10543e-15 0 0)
(-7.10543e-15 0 0)
(-7.10543e-15 0 0)
(2.84217e-14 0 0)
(-2.13163e-14 0 0)
(1.42109e-14 0 0)
(4.23071e-22 0 0)
(-1.42109e-14 0 0)
(5.28171e-22 0 0)
(-3.50805e-24 0 0)
(-4.9738e-14 0 0)
(6.73706e-22 0 0)
(6.39488e-14 0 0)
(-2.13163e-14 0 0)
(1.42109e-14 0 0)
(-2.13163e-14 0 0)
(-2.13163e-14 0 0)
(7.10543e-14 0 0)
(8.52651e-14 0 0)
(3.55271e-14 0 0)
(7.10543e-15 0 0)
(-3.55271e-14 0 0)
(-7.10543e-14 0 0)
(-4.9738e-14 0 0)
(-2.84217e-14 0 0)
(1.42109e-14 0 0)
(1.42109e-14 0 0)
(-1.42109e-14 0 0)
(-2.84217e-14 0 0)
(-4.26326e-14 0 0)
(1.42109e-14 0 0)
(3.55271e-14 0 0)
(7.69617e-22 0 0)
(-7.10543e-15 0 0)
(-1.42109e-14 0 0)
(-3.55271e-14 0 0)
(-7.10543e-15 0 0)
(2.84217e-14 0 0)
(-1.50665e-21 0 0)
(1.00738e-21 0 0)
(4.26326e-14 0 0)
(2.13163e-14 0 0)
(-3.55271e-14 0 0)
(-2.84217e-14 0 0)
(-7.10543e-15 0 0)
(2.13163e-14 0 0)
(-5.33852e-22 0 0)
(-3.55271e-14 0 0)
(7.10543e-15 0 0)
(-2.84217e-14 0 0)
(-7.10542e-15 0 0)
(2.84217e-14 0 0)
(1.42109e-14 0 0)
(-1.42109e-14 0 0)
(-4.9738e-14 0 0)
(2.13163e-14 0 0)
(2.84217e-14 0 0)
(7.10543e-15 0 0)
(-2.84217e-14 0 0)
(-7.10543e-15 0 0)
(4.26326e-14 0 0)
(-7.10543e-15 0 0)
(-4.26326e-14 0 0)
(1.42109e-14 0 0)
(4.26326e-14 0 0)
(-2.84217e-14 0 0)
(-2.84217e-14 0 0)
(1.42109e-14 0 0)
(2.84217e-14 0 0)
(1.42109e-14 0 0)
(-4.26326e-14 0 0)
(-2.84217e-14 0 0)
(-3.55271e-14 0 0)
(-1.42109e-14 0 0)
(-1.42109e-14 0 0)
(-2.84217e-14 0 0)
(1.13687e-13 0 0)
(5.68434e-14 0 0)
(-7.10543e-14 0 0)
(3.55271e-14 0 0)
(1.42109e-14 0 0)
(-4.26326e-14 0 0)
(-7.10543e-15 0 0)
(2.13163e-14 0 0)
(-3.55271e-14 0 0)
(-3.55271e-14 0 0)
(3.55271e-14 0 0)
(-4.9738e-14 0 0)
(-3.55271e-14 0 0)
(5.68434e-14 0 0)
(4.9738e-14 0 0)
(-2.84217e-14 0 0)
(6.39488e-14 0 0)
(5.68434e-14 0 0)
(-9.23706e-14 0 0)
(7.10543e-15 0 0)
(2.13163e-14 0 0)
(-7.10543e-14 0 0)
(-1.42109e-14 0 0)
(3.55271e-14 0 0)
(2.13163e-14 0 0)
(-7.10543e-15 0 0)
(1.42109e-14 0 0)
(2.13163e-14 0 0)
(1.42109e-14 0 0)
(-2.12271e-21 0 0)
(-9.9476e-14 0 0)
(7.10543e-15 0 0)
(6.39488e-14 0 0)
(-4.26326e-14 0 0)
(-1.42109e-14 0 0)
(-1.09344e-21 0 0)
(4.26326e-14 0 0)
(-7.10542e-15 0 0)
(-9.9476e-14 0 0)
(4.26326e-14 0 0)
(9.9476e-14 0 0)
(5.68434e-14 0 0)
(-3.55271e-14 0 0)
(-7.81597e-14 0 0)
(1.42109e-14 0 0)
(-3.81968e-22 0 0)
(3.55271e-14 0 0)
(7.10543e-15 0 0)
(-2.84217e-14 0 0)
(-2.13163e-14 0 0)
(-2.13163e-14 0 0)
(3.33679e-22 0 0)
(-2.84217e-14 0 0)
(2.13163e-14 0 0)
(2.13163e-14 0 0)
(-2.13163e-14 0 0)
(-1.42109e-14 0 0)
(-2.84217e-14 0 0)
(-2.84055e-23 0 0)
(2.84217e-14 0 0)
(7.10543e-15 0 0)
(7.81597e-14 0 0)
(-7.10543e-15 0 0)
(-7.81597e-14 0 0)
(8.52651e-14 0 0)
(1.42109e-14 0 0)
(-1.06581e-13 0 0)
(7.10543e-15 0 0)
(-4.26326e-14 0 0)
(7.10543e-15 0 0)
(1.20792e-13 0 0)
(2.72522e-22 0 0)
(-1.42109e-14 0 0)
(-1.42109e-14 0 0)
(-2.13163e-14 0 0)
(2.84217e-14 0 0)
(-2.84217e-14 0 0)
(-4.26326e-14 0 0)
(-2.83217e-22 0 0)
(1.42109e-14 0 0)
(2.84217e-14 0 0)
(-3.55271e-14 0 0)
(-2.13163e-14 0 0)
(-2.13163e-14 0 0)
(2.13163e-14 0 0)
(4.26326e-14 0 0)
(-2.17401e-21 0 0)
(6.39488e-14 0 0)
(2.13163e-14 0 0)
(-1.13687e-13 0 0)
(-4.9738e-14 0 0)
(4.26326e-14 0 0)
(-2.84217e-14 0 0)
(-1.42109e-14 0 0)
(2.84217e-14 0 0)
(3.55271e-14 0 0)
(2.13163e-14 0 0)
(-2.13163e-14 0 0)
(2.13163e-14 0 0)
(4.26326e-14 0 0)
(5.84981e-22 0 0)
(-1.42109e-14 0 0)
(-2.84217e-14 0 0)
(-7.10543e-15 0 0)
(2.13163e-14 0 0)
(-2.13163e-14 0 0)
(7.10542e-15 0 0)
(-2.13163e-14 0 0)
(-3.55271e-14 0 0)
(4.9738e-14 0 0)
(-2.84217e-14 0 0)
(-5.68434e-14 0 0)
(3.55271e-14 0 0)
(4.26326e-14 0 0)
(-7.10543e-15 0 0)
(-4.26326e-14 0 0)
(1.42109e-14 0 0)
(4.26326e-14 0 0)
(-7.10543e-15 0 0)
(2.13163e-14 0 0)
(-4.9738e-14 0 0)
(-9.9476e-14 0 0)
(3.55271e-14 0 0)
(-2.84217e-14 0 0)
(-2.13163e-14 0 0)
(4.9738e-14 0 0)
(2.84217e-14 0 0)
(2.84217e-14 0 0)
(-1.42109e-14 0 0)
(-3.55271e-14 0 0)
(-3.55271e-14 0 0)
(-7.10543e-15 0 0)
(4.26326e-14 0 0)
(4.9738e-14 0 0)
(-9.75641e-22 0 0)
(4.26326e-14 0 0)
(-2.13163e-14 0 0)
(-7.81597e-14 0 0)
(-1.04431e-21 0 0)
(7.10543e-15 0 0)
(-7.10543e-15 0 0)
(2.13163e-14 0 0)
(2.84217e-14 0 0)
(7.10543e-15 0 0)
(-7.10543e-15 0 0)
(4.26326e-14 0 0)
(6.82895e-22 0 0)
(-4.26326e-14 0 0)
(-2.13163e-14 0 0)
(6.07038e-22 0 0)
(2.84217e-14 0 0)
(-4.26326e-14 0 0)
(-3.55271e-14 0 0)
(7.10543e-15 0 0)
(-2.84217e-14 0 0)
(-1.42109e-14 0 0)
(4.9738e-14 0 0)
(2.13163e-14 0 0)
(-1.42109e-14 0 0)
(-1.42109e-14 0 0)
(-3.55271e-14 0 0)
(-2.13163e-14 0 0)
(2.84217e-14 0 0)
(1.42109e-14 0 0)
(-1.02025e-21 0 0)
(7.10542e-15 0 0)
(7.10543e-15 0 0)
(8.52651e-14 0 0)
(-1.75929e-21 0 0)
(-8.52651e-14 0 0)
(-7.10543e-15 0 0)
(-1.42109e-14 0 0)
(3.55271e-14 0 0)
(5.68434e-14 0 0)
(1.42109e-14 0 0)
(-1.42109e-14 0 0)
(-1.42109e-14 0 0)
(-1.42109e-14 0 0)
(-3.55271e-14 0 0)
(-1.42109e-14 0 0)
(1.42109e-14 0 0)
(1.42109e-14 0 0)
(4.9738e-14 0 0)
(4.26326e-14 0 0)
(7.10543e-15 0 0)
(-3.55271e-14 0 0)
(6.35444e-22 0 0)
(2.13163e-14 0 0)
(-4.9738e-14 0 0)
(-1.42109e-14 0 0)
(-5.68434e-14 0 0)
(2.84217e-14 0 0)
(4.9738e-14 0 0)
(-7.10543e-14 0 0)
(-1.42109e-14 0 0)
(3.55271e-14 0 0)
(7.10543e-15 0 0)
(-2.84217e-14 0 0)
(7.10543e-15 0 0)
(3.55271e-14 0 0)
(-2.13163e-14 0 0)
(-1.42109e-14 0 0)
(1.42109e-14 0 0)
(-1.96665e-22 0 0)
(1.42109e-14 0 0)
(-2.13163e-14 0 0)
(-2.13163e-14 0 0)
(-2.84217e-14 0 0)
(1.42109e-14 0 0)
(1.42109e-14 0 0)
(-7.10543e-15 0 0)
(2.13163e-14 0 0)
(7.10543e-15 0 0)
(2.84217e-14 0 0)
(7.10543e-15 0 0)
(2.84217e-14 0 0)
(2.13163e-14 0 0)
(-7.10543e-15 0 0)
(-3.55271e-14 0 0)
(-7.10543e-15 0 0)
(1.42109e-14 0 0)
(-6.39488e-14 0 0)
(-4.26326e-14 0 0)
(5.68434e-14 0 0)
(4.26326e-14 0 0)
(-2.13163e-14 0 0)
(1.42109e-14 0 0)
(1.42109e-14 0 0)
(-7.10543e-15 0 0)
(-1.42109e-14 0 0)
(3.55271e-14 0 0)
(2.84217e-14 0 0)
(-4.9738e-14 0 0)
(2.13163e-14 0 0)
(7.10543e-15 0 0)
(-3.55271e-14 0 0)
(4.26326e-14 0 0)
(4.9738e-14 0 0)
(4.26326e-14 0 0)
(-2.13163e-14 0 0)
(-1.06581e-13 0 0)
(3.55271e-14 0 0)
(3.55271e-14 0 0)
(-9.23706e-14 0 0)
(3.52228e-22 0 0)
(4.9738e-14 0 0)
(-2.13163e-14 0 0)
(2.13163e-14 0 0)
(5.68434e-14 0 0)
(-1.42109e-14 0 0)
(-7.10543e-15 0 0)
(2.84217e-14 0 0)
(1.42109e-14 0 0)
(-2.13163e-14 0 0)
(-6.39488e-14 0 0)
(-7.10543e-15 0 0)
(3.55271e-14 0 0)
(6.39488e-14 0 0)
(5.18981e-22 0 0)
(-7.10543e-14 0 0)
(2.13163e-14 0 0)
(7.10543e-15 0 0)
(-2.84217e-14 0 0)
(-2.84217e-14 0 0)
(4.9738e-14 0 0)
(2.13163e-14 0 0)
(-4.26326e-14 0 0)
(2.84217e-14 0 0)
(-2.13163e-14 0 0)
(7.10543e-15 0 0)
(1.25384e-21 0 0)
(-4.26326e-14 0 0)
(5.68434e-14 0 0)
(3.55271e-14 0 0)
(-1.42109e-14 0 0)
(-2.84217e-14 0 0)
(2.84217e-14 0 0)
(2.13163e-14 0 0)
(-5.68434e-14 0 0)
(-1.42109e-14 0 0)
(5.68434e-14 0 0)
(5.68434e-14 0 0)
(-2.84217e-14 0 0)
(-1.42109e-14 0 0)
(-4.9738e-14 0 0)
(-2.84217e-14 0 0)
(2.84217e-14 0 0)
(-3.55271e-14 0 0)
(-2.84217e-14 0 0)
(7.10543e-14 0 0)
(2.84217e-14 0 0)
(-4.26326e-14 0 0)
(1.42109e-14 0 0)
(2.84217e-14 0 0)
(4.26326e-14 0 0)
(-2.13163e-14 0 0)
(-4.26326e-14 0 0)
(-7.10543e-15 0 0)
(-3.55271e-14 0 0)
(2.84217e-14 0 0)
(2.13163e-14 0 0)
(-4.26326e-14 0 0)
(-2.84217e-14 0 0)
(2.84217e-14 0 0)
(6.39488e-14 0 0)
(-7.10543e-15 0 0)
(-7.10543e-15 0 0)
(-3.55271e-14 0 0)
(-1.97868e-21 0 0)
(3.55271e-14 0 0)
(-4.9738e-14 0 0)
(2.13163e-14 0 0)
(6.39488e-14 0 0)
(-7.81597e-14 0 0)
(-3.55271e-14 0 0)
(7.10543e-15 0 0)
(-4.26326e-14 0 0)
(3.55271e-14 0 0)
(2.13163e-14 0 0)
(7.10542e-15 0 0)
(2.13163e-14 0 0)
(-1.42109e-14 0 0)
(-7.10543e-15 0 0)
(9.4289e-22 0 0)
(1.42109e-14 0 0)
(2.13163e-14 0 0)
(-7.10543e-15 0 0)
(-4.26326e-14 0 0)
(-4.26326e-14 0 0)
(1.42109e-14 0 0)
(4.26326e-14 0 0)
(2.13163e-14 0 0)
(4.26326e-14 0 0)
(3.55271e-14 0 0)
(-4.26326e-14 0 0)
(-3.55271e-14 0 0)
(-1.36245e-21 0 0)
(-1.42109e-14 0 0)
(-2.13163e-14 0 0)
(6.39488e-14 0 0)
(1.42109e-14 0 0)
(-5.68434e-14 0 0)
(4.26326e-14 0 0)
(3.55271e-14 0 0)
(2.84217e-14 0 0)
(2.84217e-14 0 0)
(-7.10543e-14 0 0)
(7.10543e-15 0 0)
(4.9738e-14 0 0)
(-5.68434e-14 0 0)
(2.84217e-14 0 0)
(4.26326e-14 0 0)
(-4.9738e-14 0 0)
(-2.84217e-14 0 0)
(-2.84217e-14 0 0)
(1.42109e-14 0 0)
(7.10543e-15 0 0)
(-2.84217e-14 0 0)
(2.13163e-14 0 0)
(7.10543e-15 0 0)
(-7.10542e-15 0 0)
(1.22544e-21 0 0)
(-2.84217e-14 0 0)
(-4.9738e-14 0 0)
(-7.10543e-15 0 0)
(3.55271e-14 0 0)
(-3.38025e-22 0 0)
(1.42109e-14 0 0)
(3.56403e-22 0 0)
(-1.42109e-14 0 0)
(7.10542e-15 0 0)
(2.13163e-14 0 0)
(2.13163e-14 0 0)
(-1.42109e-14 0 0)
(-3.55271e-14 0 0)
(-2.13163e-14 0 0)
(2.84217e-14 0 0)
(-4.26326e-14 0 0)
(-1.42109e-14 0 0)
(4.26326e-14 0 0)
(-2.13163e-14 0 0)
(-5.70779e-22 0 0)
(2.84217e-14 0 0)
(-4.26326e-14 0 0)
(7.10543e-15 0 0)
(9.23706e-14 0 0)
(7.10543e-15 0 0)
(-4.26326e-14 0 0)
(-1.11883e-21 0 0)
(-3.55271e-14 0 0)
(-4.26326e-14 0 0)
(-7.10543e-15 0 0)
(2.13163e-14 0 0)
(-7.10543e-15 0 0)
(2.13163e-14 0 0)
(1.42109e-14 0 0)
(-4.9738e-14 0 0)
(-2.13163e-14 0 0)
(2.84217e-14 0 0)
(1.42109e-14 0 0)
(-4.9738e-14 0 0)
(7.10543e-15 0 0)
(7.10543e-15 0 0)
(-2.84217e-14 0 0)
(1.42109e-14 0 0)
(2.13163e-14 0 0)
(7.10543e-15 0 0)
(4.9843e-22 0 0)
(-4.26326e-14 0 0)
(-7.10543e-15 0 0)
(4.26326e-14 0 0)
(1.42109e-14 0 0)
(-2.13163e-14 0 0)
(-1.42109e-14 0 0)
(2.84217e-14 0 0)
(4.9738e-14 0 0)
(-7.10543e-15 0 0)
(-2.50635e-22 0 0)
(5.68434e-14 0 0)
(-2.13163e-14 0 0)
(-5.68434e-14 0 0)
(1.42109e-14 0 0)
(-1.42109e-14 0 0)
(-3.55271e-14 0 0)
(-2.84217e-14 0 0)
(2.59157e-22 0 0)
(3.55271e-14 0 0)
(-1.20622e-21 0 0)
(1.1068e-21 0 0)
(4.9738e-14 0 0)
(2.84217e-14 0 0)
(-2.84217e-14 0 0)
(-4.9738e-14 0 0)
(-4.26326e-14 0 0)
(2.84217e-14 0 0)
(7.10543e-15 0 0)
(-1.42109e-14 0 0)
(1.42109e-14 0 0)
(1.42109e-14 0 0)
(-2.84217e-14 0 0)
(-1.42109e-14 0 0)
(7.10543e-14 0 0)
(1.42109e-14 0 0)
(-3.55271e-14 0 0)
(2.13163e-14 0 0)
(1.42109e-14 0 0)
(-2.13163e-14 0 0)
(-3.53562e-22 0 0)
(-1.42109e-14 0 0)
(-7.10543e-15 0 0)
(-1.42109e-14 0 0)
(-2.13163e-14 0 0)
(2.84217e-14 0 0)
(-7.10543e-15 0 0)
(1.42109e-14 0 0)
(2.84217e-14 0 0)
(-2.84217e-14 0 0)
(-2.84217e-14 0 0)
(-7.10543e-15 0 0)
(2.84217e-14 0 0)
(2.13163e-14 0 0)
(-1.42109e-14 0 0)
(-2.13163e-14 0 0)
(-5.68434e-14 0 0)
(7.10543e-15 0 0)
(4.9738e-14 0 0)
(-1.42109e-14 0 0)
(2.84217e-14 0 0)
(-2.13163e-14 0 0)
(-2.13163e-14 0 0)
(3.55271e-14 0 0)
(-7.10543e-15 0 0)
(-1.16077e-21 0 0)
(-5.68434e-14 0 0)
(-5.68434e-14 0 0)
(4.26326e-14 0 0)
(3.55271e-14 0 0)
(-1.42109e-14 0 0)
(3.55271e-14 0 0)
(1.42109e-14 0 0)
(-1.42109e-14 0 0)
(-2.13163e-14 0 0)
(7.10543e-15 0 0)
(2.13163e-14 0 0)
(-4.9738e-14 0 0)
(7.10543e-15 0 0)
(7.10543e-15 0 0)
(2.13163e-14 0 0)
(-1.78619e-21 0 0)
(-5.68434e-14 0 0)
(-1.42109e-14 0 0)
(4.26326e-14 0 0)
(2.84217e-14 0 0)
(2.13163e-14 0 0)
(-3.55271e-14 0 0)
(-6.39488e-14 0 0)
(2.13163e-14 0 0)
(7.10543e-15 0 0)
(2.13163e-14 0 0)
(8.83906e-22 0 0)
(-1.42109e-14 0 0)
(2.84217e-14 0 0)
(-5.68434e-14 0 0)
(-2.84217e-14 0 0)
(3.55271e-14 0 0)
(-3.55271e-14 0 0)
(-2.84217e-14 0 0)
(-3.55271e-14 0 0)
(2.13163e-14 0 0)
(4.9738e-14 0 0)
(7.10543e-15 0 0)
(4.9738e-14 0 0)
(6.39488e-14 0 0)
(2.13163e-14 0 0)
(-2.84217e-14 0 0)
(-4.26326e-14 0 0)
(-3.55271e-14 0 0)
(-4.26326e-14 0 0)
(2.15546e-21 0 0)
(4.26326e-14 0 0)
(1.42109e-14 0 0)
(-1.42109e-14 0 0)
(4.9738e-14 0 0)
(4.26326e-14 0 0)
(-2.13163e-14 0 0)
(2.79708e-22 0 0)
(-1.42109e-14 0 0)
(2.84217e-14 0 0)
(-6.39488e-14 0 0)
(-2.84217e-14 0 0)
(6.39488e-14 0 0)
(-3.55271e-14 0 0)
(7.10543e-15 0 0)
(-7.10543e-15 0 0)
(-7.10543e-14 0 0)
(2.13163e-14 0 0)
(6.39488e-14 0 0)
(-7.10543e-15 0 0)
(-2.13163e-14 0 0)
(-2.13163e-14 0 0)
(2.84217e-14 0 0)
(2.84217e-14 0 0)
(1.41359e-22 0 0)
(-4.26326e-14 0 0)
(1.42109e-14 0 0)
(3.55271e-14 0 0)
(-6.39488e-14 0 0)
(3.55271e-14 0 0)
(1.53639e-21 0 0)
(-6.39488e-14 0 0)
(6.39488e-14 0 0)
(4.26326e-14 0 0)
(-3.55271e-14 0 0)
(-2.84217e-14 0 0)
(-1.42109e-14 0 0)
(1.1708e-21 0 0)
(-4.9738e-14 0 0)
(1.42109e-14 0 0)
(4.9738e-14 0 0)
(-7.10543e-15 0 0)
(3.55271e-14 0 0)
(7.10543e-15 0 0)
(-9.9476e-14 0 0)
(-7.10543e-15 0 0)
(5.68434e-14 0 0)
(1.42109e-14 0 0)
(4.9738e-14 0 0)
(2.84217e-14 0 0)
(1.42109e-14 0 0)
(4.26326e-14 0 0)
(4.26326e-14 0 0)
(1.06443e-20 0 0)
(2.13163e-14 0 0)
(6.39489e-14 0 0)
(7.81598e-14 0 0)
(7.10544e-14 0 0)
(1.5632e-13 0 0)
(3.19745e-13 0 0)
(5.68435e-13 0 0)
(9.16601e-13 0 0)
(1.4353e-12 0 0)
(2.24532e-12 0 0)
(3.61667e-12 0 0)
(5.95435e-12 0 0)
(9.44312e-12 0 0)
(1.50422e-11 0 0)
(2.38458e-11 0 0)
(3.72964e-11 0 0)
(5.83214e-11 0 0)
(9.09425e-11 0 0)
(1.40894e-10 0 0)
(2.17007e-10 0 0)
(3.32676e-10 0 0)
(5.07563e-10 0 0)
(7.70165e-10 0 0)
(1.16246e-09 0 0)
(1.74546e-09 0 0)
(2.60669e-09 0 0)
(3.87194e-09 0 0)
(5.72004e-09 0 0)
(8.40343e-09 0 0)
(1.22768e-08 0 0)
(1.78346e-08 0 0)
(2.57609e-08 0 0)
(3.69956e-08 0 0)
(5.28205e-08 0 0)
(7.49706e-08 0 0)
(1.05775e-07 0 0)
(1.48337e-07 0 0)
(2.06756e-07 0 0)
(2.86402e-07 0 0)
(3.94249e-07 0 0)
(5.39269e-07 0 0)
(7.329e-07 0 0)
(9.89583e-07 0 0)
(1.32736e-06 0 0)
(1.76854e-06 0 0)
(2.34041e-06 0 0)
(3.07591e-06 0 0)
(4.01437e-06 0 0)
(5.20211e-06 0 0)
(6.69284e-06 0 0)
(8.54798e-06 0 0)
(1.08365e-05 0 0)
(1.36343e-05 0 0)
(1.70233e-05 0 0)
(2.10896e-05 0 0)
(2.59209e-05 0 0)
(3.16032e-05 0 0)
(3.8217e-05 0 0)
(4.58318e-05 0 0)
(5.45008e-05 0 0)
(6.42552e-05 0 0)
(7.50972e-05 0 0)
(8.69946e-05 0 0)
(9.98753e-05 0 0)
(0.000113623 0 0)
(0.000128076 0 0)
(0.000143024 0 0)
(0.000158213 0 0)
(0.00017335 0 0)
(0.000188111 0 0)
(0.00020215 0 0)
(0.000215111 0 0)
(0.000226647 0 0)
(0.000236428 0 0)
(0.00024416 0 0)
(0.000249597 0 0)
(0.000252553 0 0)
(0.000252909 0 0)
(0.000250619 0 0)
(0.000245709 0 0)
(0.000238279 0 0)
(0.000228495 0 0)
(0.000216577 0 0)
(0.000202797 0 0)
(0.000187458 0 0)
(0.000170887 0 0)
(0.000153419 0 0)
(0.000135387 0 0)
(0.000117114 0 0)
(9.88973e-05 0 0)
(8.10084e-05 0 0)
(6.36839e-05 0 0)
(4.71239e-05 0 0)
(3.149e-05 0 0)
(1.69061e-05 0 0)
(3.45888e-06 0 0)
(-8.79876e-06 0 0)
(-1.9845e-05 0 0)
(-2.96851e-05 0 0)
(-3.83474e-05 0 0)
(-4.58793e-05 0 0)
(-5.23427e-05 0 0)
(-5.78105e-05 0 0)
(-6.23631e-05 0 0)
(-6.60853e-05 0 0)
(-6.90633e-05 0 0)
(-7.13818e-05 0 0)
(-7.31229e-05 0 0)
(-7.4364e-05 0 0)
(-7.5177e-05 0 0)
(-7.56278e-05 0 0)
(-7.57757e-05 0 0)
(-7.56732e-05 0 0)
(-7.53665e-05 0 0)
(-7.48954e-05 0 0)
(-7.4294e-05 0 0)
(-7.35911e-05 0 0)
(-7.28107e-05 0 0)
(-7.19729e-05 0 0)
(-7.10938e-05 0 0)
(-7.01867e-05 0 0)
(-6.92622e-05 0 0)
(-6.83288e-05 0 0)
(-6.73933e-05 0 0)
(-6.64609e-05 0 0)
(-6.55357e-05 0 0)
(-6.46211e-05 0 0)
(-6.37193e-05 0 0)
(-6.28325e-05 0 0)
(-6.19619e-05 0 0)
(-6.11086e-05 0 0)
(-6.02736e-05 0 0)
(-5.94572e-05 0 0)
(-5.86599e-05 0 0)
(-5.78818e-05 0 0)
(-5.71231e-05 0 0)
(-5.63837e-05 0 0)
(-5.56635e-05 0 0)
(-5.49624e-05 0 0)
(-5.428e-05 0 0)
(-5.36161e-05 0 0)
(-5.29703e-05 0 0)
(-5.23425e-05 0 0)
(-5.17321e-05 0 0)
(-5.1139e-05 0 0)
(-5.05626e-05 0 0)
(-5.00027e-05 0 0)
(-4.94589e-05 0 0)
(-4.89308e-05 0 0)
(-4.8418e-05 0 0)
(-4.792e-05 0 0)
(-4.74363e-05 0 0)
(-4.69663e-05 0 0)
(-4.65094e-05 0 0)
(-4.60647e-05 0 0)
(-4.56315e-05 0 0)
(-4.52086e-05 0 0)
(-4.47951e-05 0 0)
(-4.43899e-05 0 0)
(-4.39918e-05 0 0)
(-4.35995e-05 0 0)
(-4.32119e-05 0 0)
(-4.28278e-05 0 0)
(-4.24462e-05 0 0)
(-4.20662e-05 0 0)
(-4.16867e-05 0 0)
(-4.13072e-05 0 0)
(-4.09272e-05 0 0)
(-4.05462e-05 0 0)
(-4.01641e-05 0 0)
(-3.97808e-05 0 0)
(-3.93965e-05 0 0)
(-3.90113e-05 0 0)
(-3.86257e-05 0 0)
(-3.82399e-05 0 0)
(-3.78546e-05 0 0)
(-3.74701e-05 0 0)
(-3.7087e-05 0 0)
(-3.67059e-05 0 0)
(-3.63271e-05 0 0)
(-3.59512e-05 0 0)
(-3.55786e-05 0 0)
(-3.52098e-05 0 0)
(-3.4845e-05 0 0)
(-3.44847e-05 0 0)
(-3.41292e-05 0 0)
(-3.37788e-05 0 0)
(-3.34337e-05 0 0)
(-3.30943e-05 0 0)
(-3.27608e-05 0 0)
(-3.24334e-05 0 0)
(-3.21122e-05 0 0)
(-3.17973e-05 0 0)
(-3.14888e-05 0 0)
(-3.11866e-05 0 0)
(-3.08905e-05 0 0)
(-3.06003e-05 0 0)
(-3.03152e-05 0 0)
(-3.00352e-05 0 0)
(-2.97588e-05 0 0)
(-2.94871e-05 0 0)
(-2.92175e-05 0 0)
(-2.89547e-05 0 0)
(-2.86908e-05 0 0)
(-2.84395e-05 0 0)
(-2.81776e-05 0 0)
(-2.79394e-05 0 0)
(-2.7671e-05 0 0)
(-2.74445e-05 0 0)
(-2.71686e-05 0 0)
(-2.69394e-05 0 0)
(-2.66893e-05 0 0)
(-2.6402e-05 0 0)
(-2.6265e-05 0 0)
(-2.58205e-05 0 0)
(-2.58829e-05 0 0)
(-2.52509e-05 0 0)
(-2.54392e-05 0 0)
(-2.48039e-05 0 0)
(-2.48768e-05 0 0)
(-2.444e-05 0 0)
(-2.43663e-05 0 0)
(-2.39629e-05 0 0)
(-2.39854e-05 0 0)
(-2.34729e-05 0 0)
(-2.35111e-05 0 0)
(-2.33996e-05 0 0)
(-2.30665e-05 0 0)
(-2.19574e-05 0 0)
(-2.3475e-05 0 0)
(-2.19718e-05 0 0)
(-2.20186e-05 0 0)
(-2.1722e-05 0 0)
(-2.18074e-05 0 0)
(-2.13204e-05 0 0)
(-2.11604e-05 0 0)
(-2.11153e-05 0 0)
(-2.12376e-05 0 0)
(-2.05337e-05 0 0)
(-2.05894e-05 0 0)
(-2.02084e-05 0 0)
(-2.02173e-05 0 0)
(-1.97893e-05 0 0)
(-2.0411e-05 0 0)
(-1.91642e-05 0 0)
(-2.03985e-05 0 0)
(-1.8636e-05 0 0)
(-2.14896e-05 0 0)
(-1.97968e-05 0 0)
(-2.49964e-05 0 0)
(-1.66707e-05 0 0)
(2.55391e-06 0 0)
(-7.94079e-06 0 0)
(-1.19623e-05 0 0)
(-9.0061e-06 0 0)
(-8.08435e-06 0 0)
(-1.00822e-05 0 0)
(-6.42058e-06 0 0)
(-9.76154e-06 0 0)
(-5.09741e-06 0 0)
(3.23767e-06 0 0)
(-1.58895e-05 0 0)
(-2.12899e-05 0 0)
(-1.12673e-05 0 0)
(4.16721e-06 0 0)
(-2.25931e-06 0 0)
(-5.59091e-06 0 0)
(-2.18711e-05 0 0)
(6.9559e-06 0 0)
(4.03923e-06 0 0)
(-1.30162e-05 0 0)
(-1.1334e-05 0 0)
(-9.72891e-07 0 0)
(-2.49686e-06 0 0)
(-6.31532e-06 0 0)
(-6.56271e-06 0 0)
(-3.17648e-06 0 0)
(-5.44472e-06 0 0)
(-2.44128e-06 0 0)
(-4.10197e-06 0 0)
(-3.25412e-06 0 0)
(-4.52376e-06 0 0)
(-2.30515e-06 0 0)
(-3.64165e-06 0 0)
(-1.95431e-06 0 0)
(-3.27012e-06 0 0)
(-1.61935e-06 0 0)
(-2.89905e-06 0 0)
(-9.88841e-07 0 0)
(-2.65586e-06 0 0)
(-5.59788e-07 0 0)
(-1.79008e-06 0 0)
(-5.59975e-07 0 0)
(-1.58643e-06 0 0)
(1.09411e-08 0 0)
(-1.16024e-06 0 0)
(7.3113e-07 0 0)
(-5.56061e-07 0 0)
(1.72931e-06 0 0)
(6.26976e-07 0 0)
(8.53211e-07 0 0)
(4.32086e-06 0 0)
(-5.22679e-06 0 0)
(5.36254e-06 0 0)
(-4.10139e-06 0 0)
(5.47213e-06 0 0)
(5.59432e-06 0 0)
(1.02904e-06 0 0)
(4.51703e-06 0 0)
(1.58735e-06 0 0)
(-3.63261e-07 0 0)
(4.6183e-06 0 0)
(3.85365e-06 0 0)
(3.21108e-06 0 0)
(5.24719e-06 0 0)
(2.99021e-06 0 0)
(2.32512e-06 0 0)
(5.06365e-06 0 0)
(4.73995e-06 0 0)
(5.11087e-06 0 0)
(6.17643e-06 0 0)
(5.72514e-06 0 0)
(5.18637e-06 0 0)
(6.96297e-06 0 0)
(6.76157e-06 0 0)
(6.20821e-06 0 0)
(6.25007e-06 0 0)
(6.60694e-06 0 0)
(6.78385e-06 0 0)
(8.13586e-06 0 0)
(8.46365e-06 0 0)
(8.64645e-06 0 0)
(7.81564e-06 0 0)
(8.18247e-06 0 0)
(1.36822e-05 0 0)
(-2.4789e-08 0 0)
(5.96414e-06 0 0)
(7.04051e-06 0 0)
(6.29666e-06 0 0)
(6.99981e-06 0 0)
(7.18398e-06 0 0)
(7.48644e-06 0 0)
(7.44458e-06 0 0)
(7.78196e-06 0 0)
(5.77958e-06 0 0)
(-1.05663e-05 0 0)
(-7.33225e-05 0 0)
(-0.000189736 0 0)
(-0.000929036 0 0)
(-0.00170073 0 0)
(0.00305405 0 0)
)
;

boundaryField
{
    sideLeft
    {
        type            symmetryPlane;
    }
    sideRight
    {
        type            calculated;
        value           uniform (-0.43256 0 0);
    }
    topbottom
    {
        type            empty;
    }
    frontback
    {
        type            empty;
    }
}


// ************************************************************************* //
